version 2
run General-0-20141104-20:20:42-13697
attr configname General
attr datetime 20141104-20:20:42
attr experiment General
attr inifile routerTerminal.ini
attr iterationvars ""
attr iterationvars2 $repetition=0
attr measurement ""
attr network Network1
attr processid 13697
attr repetition 0
attr replication #0
attr resultdir results
attr runnumber 0
attr seedset 0

vector 0  Network1.queue  queueLength:vector  ETV
attr interpolationmode  sample-hold
attr title  "queue length, vector"
vector 1  Network1.queue1  queueLength:vector  ETV
attr interpolationmode  sample-hold
attr title  "queue length, vector"
vector 2  Network1.queue2  queueLength:vector  ETV
attr interpolationmode  sample-hold
attr title  "queue length, vector"
vector 3  Network1.queue3  queueLength:vector  ETV
attr interpolationmode  sample-hold
attr title  "queue length, vector"
vector 4  Network1.queue4  queueLength:vector  ETV
attr interpolationmode  sample-hold
attr title  "queue length, vector"
vector 5  Network1.Terminal  queueLength:vector  ETV
attr interpolationmode  sample-hold
attr title  "queue length, vector"
0	0	0	0
0	30	1.694934893048	1
0	31	2.296374504565	0
0	35	2.950865651095	1
0	36	3.796374504565	0
0	40	3.874088782565	1
0	42	4.661289922546	2
0	43	5.296374504565	1
0	50	6.540253976748	2
0	51	6.796374504565	1
0	58	7.578413277411	2
0	63	7.931572416548	3
0	64	8.296374504565	2
0	76	9.796374504565	1
0	83	11.246484696476	2
0	84	11.296374504565	1
0	88	11.320170051941	2
0	90	11.411331078065	3
0	92	12.455943586373	4
0	94	12.476369174772	5
0	95	12.796374504565	4
0	99	12.935617312027	5
0	103	14.296374504565	4
0	109	15.796374504565	3
0	116	16.085787240702	4
0	121	16.704716700328	5
0	123	17.296374504565	4
0	132	17.840655642038	5
0	134	18.611490300505	6
0	135	18.796374504565	5
0	138	20.296374504565	4
0	145	21.505910778492	5
0	146	21.796374504565	4
0	150	22.147605480523	5
0	158	22.353808762553	6
0	160	22.962891185736	7
0	162	23.206939676472	8
0	163	23.296374504565	7
0	170	24.047274382084	8
0	175	24.43904519276	9
0	176	24.796374504565	8
0	186	25.398593170128	9
0	191	25.996339246946	10
0	192	26.296374504565	9
0	196	26.945833830442	10
0	198	27.796374504565	9
0	204	29.272184892136	10
0	206	29.296374504565	9
0	211	30.796374504565	8
0	217	32.296374504565	7
0	224	32.77239857659	8
0	229	33.224500636814	9
0	233	33.796374504565	8
0	243	34.068928430341	9
0	248	35.296374504565	8
0	259	36.796374504565	7
0	269	37.261875072394	8
0	274	37.542152080872	9
0	276	37.715279537018	10
0	281	38.12778076694	11
0	283	38.276493036192	12
0	284	38.296374504565	11
0	297	39.783128369464	12
0	298	39.796374504565	11
0	308	40.75823030362	12
0	313	41.296374504565	11
0	327	42.796374504565	10
0	336	44.296374504565	9
0	340	44.331818675964	10
0	342	44.777238137883	11
0	344	45.128414227264	12
0	352	45.784060511627	13
0	354	45.796374504565	12
0	360	46.166761460488	13
0	361	47.296374504565	12
0	370	48.796374504565	11
0	385	50.296374504565	10
0	392	51.796374504565	9
0	404	53.296374504565	8
0	416	53.897220414655	9
0	417	54.796374504565	8
0	424	55.738502886142	9
0	429	56.245703009398	10
0	430	56.296374504565	9
0	437	57.050500409199	10
0	445	57.796374504565	9
0	454	58.816241481612	10
0	455	59.296374504565	9
0	464	60.796374504565	8
0	477	62.091384659326	9
0	478	62.296374504565	8
0	485	63.110043389344	9
0	490	63.796374504565	8
0	502	65.296374504565	7
0	517	66.162325046228	8
0	519	66.538063888634	9
0	520	66.796374504565	8
0	529	68.296374504565	7
0	536	68.672894338617	8
0	544	69.705691349262	9
0	546	69.796374504565	8
0	555	70.670144914755	9
0	556	71.296374504565	8
0	563	71.305272630385	9
0	568	72.267647686156	10
0	569	72.796374504565	9
0	576	72.827608756229	10
0	578	72.924531510805	11
0	583	73.768419983395	12
0	587	74.296374504565	11
0	594	74.570971969153	12
0	599	75.135582470273	13
0	601	75.796374504565	12
0	607	77.296374504565	11
0	616	77.404216462965	12
0	618	77.509829106593	13
0	620	77.614710942193	14
0	625	78.230720160508	15
0	629	78.796374504565	14
0	641	80.296374504565	13
0	648	80.506292431788	14
0	653	81.796374504565	13
0	664	83.296374504565	12
0	673	84.796374504565	11
0	682	86.296374504565	10
0	694	87.796374504565	9
0	707	89.296374504565	8
0	716	89.494204012024	9
0	718	89.512899482444	10
0	720	90.796374504565	9
0	729	91.049880209708	10
0	730	92.296374504565	9
0	740	93.204338531889	10
0	744	93.796374504565	9
0	751	94.735169758156	10
0	753	94.786852663951	11
0	757	95.296374504565	10
0	764	95.647776300631	11
0	769	96.796374504565	10
0	786	98.296374504565	9
0	790	98.369124556543	10
0	797	99.796374504565	9
0	810	101.296374504565	8
0	822	102.796374504565	7
0	833	104.296374504565	6
0	845	105.796374504565	5
0	849	106.426730050475	6
0	856	107.296374504565	5
0	866	108.796374504565	4
0	872	109.101979406379	5
0	874	109.24957543927	6
0	878	110.296374504565	5
0	882	110.71675796015	6
0	886	111.796374504565	5
0	893	112.683876433048	6
0	895	113.076449461235	7
0	897	113.296374504565	6
0	906	113.670137798381	7
0	907	114.796374504565	6
0	913	116.296374504565	5
0	923	116.905419117273	6
0	931	117.565922197022	7
0	932	117.796374504565	6
0	938	119.296374504565	5
0	945	119.60888249753	6
0	949	120.796374504565	5
0	959	122.296374504565	4
0	968	122.538294149336	5
0	973	122.863510167312	6
0	974	123.796374504565	5
0	987	125.296374504565	4
0	1001	126.796374504565	3
0	1011	128.296374504565	2
0	1022	129.796374504565	1
0	1034	131.296374504565	0
0	1044	132.174589583283	1
0	1048	132.796374504565	0
0	1087	138.302054582404	1
0	1088	138.586364109046	0
0	1092	138.966862331955	1
0	1093	140.086364109046	0
0	1140	146.73855043388	1
0	1141	147.243086790514	0
0	1154	148.628652131976	1
0	1155	148.743086790514	0
0	1218	162.350464848954	1
0	1222	163.405315509548	0
0	1285	177.692785948942	1
0	1286	178.911261926472	0
0	1390	202.745697126724	1
0	1391	202.939627525946	0
0	1585	257.423948078362	1
0	1586	257.830246359807	0
0	1626	265.397991744486	1
0	1627	265.958489758623	0
0	1637	267.434285931757	1
0	1638	267.458489758623	0
0	1642	267.524793401905	1
0	1649	268.958489758623	0
0	1703	277.974154201833	1
0	1707	278.455936623026	0
0	1766	291.066901849926	1
0	1767	292.138394245747	0
0	1859	320.16553793475	1
0	1860	320.967600385919	0
0	2005	361.667990259392	1
0	2006	361.986021219123	0
0	2178	399.842199797351	1
0	2179	399.874876230402	0
0	2183	399.904408041565	1
0	2187	401.374876230402	0
0	2252	412.129962017258	1
0	2253	412.850426988428	0
0	2263	413.901315336578	1
0	2267	414.350426988428	0
0	2271	414.408904450943	1
0	2273	414.789415399505	2
0	2277	415.850426988428	1
0	2283	417.350426988428	0
0	2372	438.045458476704	1
0	2374	438.56166193164	2
0	2375	438.89604774991	1
0	2378	440.39604774991	0
1	0	0	0
1	78	9.796374504565	1
1	81	10.796374504565	2
1	100	13.296374504565	1
1	114	15.796374504565	2
1	122	17.296374504565	1
1	127	17.296374504565	2
1	130	17.796374504565	3
1	141	21.296374504565	2
1	180	24.796374504565	3
1	182	25.296374504565	2
1	184	25.296374504565	3
1	201	27.796374504565	4
1	202	27.796374504565	5
1	205	29.296374504565	4
1	230	33.296374504565	3
1	270	37.296374504565	2
1	288	38.296374504565	3
1	312	41.296374504565	2
1	323	41.796374504565	3
1	345	45.296374504565	2
1	350	45.296374504565	3
1	375	48.796374504565	4
1	376	49.296374504565	3
1	384	49.796374504565	4
1	390	50.296374504565	5
1	403	53.296374504565	4
1	438	57.296374504565	3
1	470	61.296374504565	2
1	501	65.296374504565	1
1	507	65.296374504565	2
1	524	66.796374504565	3
1	533	68.296374504565	4
1	540	69.296374504565	3
1	553	69.796374504565	4
1	566	71.796374504565	5
1	579	73.296374504565	4
1	581	73.296374504565	5
1	606	77.296374504565	4
1	646	80.296374504565	5
1	649	81.296374504565	4
1	663	82.796374504565	5
1	668	83.296374504565	6
1	669	83.296374504565	7
1	679	85.296374504565	6
1	689	86.296374504565	7
1	698	87.796374504565	8
1	706	89.296374504565	7
1	713	89.296374504565	8
1	738	92.796374504565	9
1	741	93.296374504565	8
1	777	97.296374504565	7
1	781	97.296374504565	8
1	782	97.296374504565	9
1	788	98.296374504565	10
1	809	101.296374504565	9
1	814	101.296374504565	10
1	829	103.296374504565	11
1	832	103.796374504565	12
1	835	104.296374504565	13
1	838	104.796374504565	14
1	839	105.296374504565	13
1	847	105.796374504565	14
1	858	107.296374504565	15
1	861	107.796374504565	16
1	875	109.296374504565	15
1	896	113.296374504565	14
1	912	114.796374504565	15
1	924	117.296374504565	14
1	934	117.796374504565	15
1	952	121.296374504565	14
1	986	125.296374504565	13
1	991	125.296374504565	14
1	1005	126.796374504565	15
1	1019	129.296374504565	14
1	1032	130.296374504565	15
1	1051	133.296374504565	14
1	1058	133.296374504565	15
1	1064	134.296374504565	16
1	1068	134.796374504565	17
1	1080	137.296374504565	16
1	1085	138.296374504565	17
1	1097	140.086364109046	18
1	1101	140.296374504565	19
1	1105	141.296374504565	18
1	1125	145.296374504565	17
1	1137	146.296374504565	18
1	1143	147.243086790514	19
1	1151	148.296374504565	20
1	1160	148.796374504565	21
1	1161	149.296374504565	20
1	1163	149.296374504565	21
1	1166	150.243086790514	22
1	1177	152.324841732866	23
1	1180	153.296374504565	22
1	1193	156.071427492548	23
1	1197	157.296374504565	22
1	1209	161.296374504565	21
1	1224	163.405315509548	22
1	1234	165.296374504565	21
1	1245	167.796374504565	22
1	1246	169.296374504565	21
1	1254	169.296374504565	22
1	1261	173.296374504565	21
1	1272	174.296374504565	22
1	1275	175.296374504565	23
1	1279	177.296374504565	22
1	1295	181.296374504565	21
1	1300	181.411261926472	22
1	1308	183.296374504565	23
1	1312	185.296374504565	22
1	1328	188.659970714456	23
1	1331	189.012796010413	24
1	1332	189.296374504565	23
1	1343	193.296374504565	22
1	1361	197.296374504565	21
1	1371	199.62977784294	22
1	1378	201.296374504565	21
1	1393	202.939627525946	22
1	1400	205.296374504565	21
1	1419	208.12977784294	22
1	1420	209.296374504565	21
1	1428	210.296374504565	22
1	1436	212.701037964383	23
1	1437	213.296374504565	22
1	1442	213.62977784294	23
1	1448	215.796374504565	24
1	1449	217.296374504565	23
1	1458	221.296374504565	22
1	1460	221.296374504565	23
1	1466	222.796374504565	24
1	1467	225.296374504565	23
1	1472	226.296374504565	24
1	1473	229.296374504565	23
1	1479	233.296374504565	22
1	1484	233.296374504565	23
1	1491	237.296374504565	22
1	1503	241.296374504565	21
1	1527	244.796374504565	22
1	1528	245.296374504565	21
1	1539	247.498811653213	22
1	1542	247.796374504565	23
1	1546	249.296374504565	22
1	1558	253.296374504565	21
1	1569	254.796374504565	22
1	1578	257.296374504565	21
1	1600	261.296374504565	20
1	1619	265.296374504565	19
1	1652	269.296374504565	18
1	1665	270.458489758623	19
1	1672	271.296374504565	20
1	1682	273.296374504565	19
1	1687	274.296374504565	20
1	1693	275.796374504565	21
1	1696	277.296374504565	20
1	1700	277.296374504565	21
1	1718	281.296374504565	20
1	1735	284.296374504565	21
1	1739	285.296374504565	20
1	1741	285.296374504565	21
1	1754	289.296374504565	20
1	1758	289.296374504565	21
1	1772	292.296374504565	22
1	1773	293.296374504565	21
1	1783	294.296374504565	22
1	1786	295.277252728868	23
1	1790	297.296374504565	22
1	1797	297.796374504565	23
1	1800	299.055486760447	24
1	1801	301.296374504565	23
1	1809	305.296374504565	22
1	1817	306.796374504565	23
1	1824	309.296374504565	22
1	1829	310.296374504565	23
1	1835	313.296374504565	22
1	1837	313.296374504565	23
1	1847	317.296374504565	22
1	1863	321.296374504565	21
1	1868	322.467600385919	22
1	1874	322.967600385919	23
1	1878	325.296374504565	22
1	1889	327.467600385919	23
1	1890	329.296374504565	22
1	1910	333.296374504565	21
1	1917	334.027093355595	22
1	1929	336.296374504565	23
1	1932	336.961667516885	24
1	1933	337.296374504565	23
1	1942	341.296374504565	22
1	1947	341.296374504565	23
1	1954	345.296374504565	22
1	1959	345.296374504565	23
1	1967	349.296374504565	22
1	1969	349.296374504565	23
1	1978	352.936172956029	24
1	1979	353.296374504565	23
1	1987	357.296374504565	22
1	1998	359.296374504565	23
1	2001	361.296374504565	22
1	2021	365.296374504565	21
1	2040	369.296374504565	20
1	2045	369.296374504565	21
1	2058	373.296374504565	20
1	2069	374.796374504565	21
1	2077	376.770253096044	22
1	2081	377.296374504565	21
1	2083	377.296374504565	22
1	2091	378.796374504565	23
1	2096	381.296374504565	22
1	2105	385.296374504565	21
1	2116	387.296374504565	22
1	2120	389.296374504565	21
1	2145	392.296374504565	22
1	2151	393.296374504565	21
1	2156	393.796374504565	22
1	2166	397.296374504565	21
1	2171	397.796374504565	22
1	2184	401.296374504565	21
1	2202	405.296374504565	20
1	2221	407.796374504565	21
1	2231	409.296374504565	20
1	2255	412.850426988428	21
1	2256	413.296374504565	20
1	2276	415.296374504565	21
1	2279	415.850426988428	22
1	2280	417.296374504565	21
1	2282	417.296374504565	22
1	2288	418.350426988428	23
1	2295	421.296374504565	22
1	2309	425.296374504565	21
1	2322	427.342822690061	22
1	2326	429.296374504565	21
1	2348	433.296374504565	20
1	2352	433.296374504565	21
1	2359	434.296374504565	22
1	2366	437.296374504565	21
1	2384	441.296374504565	20
1	2404	444.296374504565	21
2	0	0	0
2	306	39.796374504565	1
2	316	41.296374504565	2
2	317	41.296374504565	3
2	318	41.796374504565	2
2	331	42.796374504565	3
2	332	42.796374504565	4
2	333	43.796374504565	3
2	338	44.296374504565	4
2	349	45.296374504565	5
2	353	45.796374504565	4
2	366	47.296374504565	5
2	367	47.796374504565	4
2	378	49.296374504565	5
2	379	49.796374504565	4
2	389	50.296374504565	5
2	391	51.796374504565	4
2	398	51.796374504565	5
2	409	53.296374504565	6
2	412	53.796374504565	5
2	425	55.796374504565	4
2	427	55.796374504565	5
2	443	57.296374504565	6
2	444	57.796374504565	5
2	451	57.796374504565	6
2	461	59.796374504565	5
2	472	61.296374504565	6
2	473	61.796374504565	5
2	475	61.796374504565	6
2	489	63.796374504565	5
2	510	65.796374504565	4
2	526	67.796374504565	3
2	545	69.796374504565	2
2	564	71.796374504565	1
2	584	73.796374504565	0
2	597	74.796374504565	1
2	600	75.796374504565	0
2	605	75.796374504565	1
2	621	77.796374504565	0
2	628	78.296374504565	1
2	635	79.796374504565	0
2	640	79.796374504565	1
2	652	81.796374504565	0
2	678	84.796374504565	1
2	690	86.296374504565	2
2	691	86.796374504565	1
2	700	88.796374504565	0
2	704	88.796374504565	1
2	705	88.796374504565	2
2	719	90.796374504565	1
2	727	90.796374504565	2
2	736	92.796374504565	1
2	754	94.796374504565	0
2	785	97.796374504565	1
2	791	98.796374504565	0
2	796	98.796374504565	1
2	803	100.796374504565	0
2	807	100.796374504565	1
2	817	101.796374504565	2
2	821	102.796374504565	1
2	836	104.796374504565	0
2	843	105.296374504565	1
2	850	106.796374504565	0
2	864	108.296374504565	1
2	865	108.796374504565	0
2	957	121.296374504565	1
2	958	122.296374504565	0
2	985	124.796374504565	1
2	998	126.296374504565	0
2	1006	126.796374504565	1
2	1009	127.296374504565	2
2	1010	128.296374504565	1
2	1015	128.296374504565	2
2	1025	130.296374504565	1
2	1031	130.296374504565	2
2	1033	130.296374504565	3
2	1042	131.796374504565	4
2	1045	132.296374504565	3
2	1057	133.296374504565	4
2	1059	133.296374504565	5
2	1060	134.296374504565	4
2	1072	136.296374504565	3
2	1083	138.296374504565	2
2	1099	140.296374504565	1
2	1104	141.086364109046	2
2	1111	142.296374504565	1
2	1116	142.296374504565	2
2	1122	144.296374504565	1
2	1133	146.296374504565	0
2	1253	169.296374504565	1
2	1255	171.296374504565	0
2	1402	205.296374504565	1
2	1406	206.12977784294	0
2	1413	207.439627525946	1
2	1417	208.12977784294	0
2	1496	238.296374504565	1
2	1497	238.796374504565	0
2	1499	238.796374504565	1
2	1500	240.796374504565	0
2	1521	243.296374504565	1
2	1525	244.796374504565	0
2	1533	245.998811653213	1
2	1534	246.796374504565	0
2	1548	249.296374504565	1
2	1549	250.796374504565	0
2	1566	253.796374504565	1
2	1570	255.296374504565	0
2	1597	259.330246359807	1
2	1601	261.296374504565	0
2	1709	278.455936623026	1
2	1713	280.296374504565	0
2	1723	281.455936623026	1
2	1727	282.296374504565	0
2	1729	282.296374504565	1
2	1732	282.955936623026	2
2	1733	284.296374504565	1
2	1745	286.296374504565	0
2	1747	286.296374504565	1
2	1750	287.455936623026	2
2	1751	288.296374504565	1
2	1760	290.296374504565	0
2	1769	292.138394245747	1
2	1770	292.296374504565	0
2	1778	293.638394245747	1
2	1781	294.296374504565	0
2	1871	322.796374504565	1
2	1872	322.967600385919	0
2	2054	372.296374504565	1
2	2055	372.796374504565	0
2	2057	372.796374504565	1
2	2067	374.796374504565	0
2	2074	375.296374504565	1
2	2078	376.796374504565	0
2	2101	382.296374504565	1
2	2102	383.296374504565	0
2	2104	383.296374504565	1
2	2106	385.296374504565	0
2	2110	385.296374504565	1
2	2114	387.296374504565	0
2	2195	402.874876230402	1
2	2196	403.296374504565	0
2	2319	426.796374504565	1
2	2323	428.796374504565	0
2	2389	441.39604774991	1
2	2396	443.296374504565	0
2	2401	443.39604774991	1
3	0	0	0
3	155	22.296374504565	1
3	164	23.296374504565	0
3	210	29.296374504565	1
3	212	30.796374504565	0
3	216	30.796374504565	1
3	218	32.296374504565	0
3	222	32.296374504565	1
3	234	33.796374504565	0
3	240	33.796374504565	1
3	249	35.296374504565	0
3	254	35.296374504565	1
3	260	36.796374504565	0
3	358	45.796374504565	1
3	362	47.296374504565	0
3	365	47.296374504565	1
3	369	47.796374504565	2
3	371	48.796374504565	1
3	383	49.796374504565	2
3	386	50.296374504565	1
3	393	51.796374504565	0
3	399	51.796374504565	1
3	405	53.296374504565	0
3	410	53.296374504565	1
3	418	54.796374504565	0
3	422	54.796374504565	1
3	431	56.296374504565	0
3	452	57.796374504565	1
3	456	59.296374504565	0
3	497	63.796374504565	1
3	503	65.296374504565	0
3	508	65.296374504565	1
3	521	66.796374504565	0
3	552	69.796374504565	1
3	557	71.296374504565	0
3	614	77.296374504565	1
3	630	78.796374504565	0
3	633	78.796374504565	1
3	642	80.296374504565	0
3	645	80.296374504565	1
3	651	81.296374504565	2
3	654	81.796374504565	1
3	659	81.796374504565	2
3	660	81.796374504565	3
3	665	83.296374504565	2
3	672	83.796374504565	3
3	674	84.796374504565	2
3	683	86.296374504565	1
3	688	86.296374504565	2
3	693	86.796374504565	3
3	695	87.796374504565	2
3	708	89.296374504565	1
3	721	90.796374504565	0
3	726	90.796374504565	1
3	731	92.296374504565	0
3	775	96.796374504565	1
3	778	97.296374504565	0
3	813	101.296374504565	1
3	818	102.296374504565	0
3	825	102.796374504565	1
3	826	102.796374504565	2
3	830	103.796374504565	1
3	840	105.296374504565	0
3	885	110.796374504565	1
3	887	111.796374504565	0
3	904	113.296374504565	1
3	908	114.796374504565	0
3	964	122.296374504565	1
3	969	122.796374504565	0
3	971	122.796374504565	1
3	978	124.296374504565	0
3	997	125.796374504565	1
3	1000	126.296374504565	2
3	1007	127.296374504565	1
3	1014	128.296374504565	2
3	1016	128.796374504565	1
3	1018	128.796374504565	2
3	1026	130.296374504565	1
3	1039	131.296374504565	2
3	1040	131.796374504565	1
3	1050	132.796374504565	2
3	1052	133.296374504565	1
3	1066	134.796374504565	0
3	1152	148.296374504565	1
3	1157	148.743086790514	2
3	1158	148.796374504565	1
3	1167	150.296374504565	0
3	1233	164.905315509548	1
3	1236	165.296374504565	2
3	1237	166.296374504565	1
3	1243	167.796374504565	0
3	1294	180.411261926472	1
3	1298	181.411261926472	0
3	1345	193.296374504565	1
3	1346	193.62977784294	0
3	1351	194.62977784294	1
3	1352	195.12977784294	0
3	1357	196.12977784294	1
3	1358	196.62977784294	0
3	1363	197.296374504565	1
3	1364	198.12977784294	0
3	1366	198.12977784294	1
3	1369	199.62977784294	0
3	1374	199.63219063665	1
3	1375	201.12977784294	0
3	1530	245.296374504565	1
3	1531	245.998811653213	0
3	1629	265.958489758623	1
3	1632	266.309301496393	2
3	1633	266.796374504565	1
3	1643	268.296374504565	0
3	1648	268.458489758623	1
3	1658	269.796374504565	0
3	1660	269.796374504565	1
3	1669	270.958489758623	2
3	1670	271.296374504565	1
3	1675	271.458489758623	2
3	1678	272.458489758623	3
3	1679	272.796374504565	2
3	1685	274.296374504565	1
3	1691	275.796374504565	0
3	1720	281.296374504565	1
3	1721	281.455936623026	0
3	1726	282.275587199048	1
3	1730	282.955936623026	0
3	2037	367.87469849299	1
3	2041	369.296374504565	0
3	2044	369.296374504565	1
3	2048	370.468833799396	2
3	2049	370.796374504565	1
3	2052	372.296374504565	0
3	2133	390.296374504565	1
3	2134	390.796374504565	0
3	2328	429.296374504565	1
3	2329	430.296374504565	0
3	2342	431.796374504565	1
3	2349	433.296374504565	0
3	2395	442.39604774991	1
3	2399	443.39604774991	0
4	0	0	0
4	241	33.796374504565	1
4	244	34.796374504565	0
4	246	34.796374504565	1
4	253	35.296374504565	2
4	255	35.296374504565	3
4	256	35.796374504565	2
4	258	35.796374504565	3
4	261	36.796374504565	2
4	265	36.796374504565	3
4	267	36.796374504565	4
4	277	37.796374504565	3
4	290	38.796374504565	2
4	300	39.796374504565	1
4	305	39.796374504565	2
4	309	40.796374504565	1
4	319	41.796374504565	0
4	761	95.296374504565	1
4	765	95.796374504565	0
4	802	99.796374504565	1
4	804	100.796374504565	0
4	929	117.296374504565	1
4	935	118.296374504565	0
4	943	119.296374504565	1
4	946	120.296374504565	0
4	951	120.796374504565	1
4	953	121.296374504565	0
4	981	124.296374504565	1
4	983	124.796374504565	0
4	990	125.296374504565	1
4	993	125.796374504565	0
4	1024	129.796374504565	1
4	1027	130.296374504565	0
4	1130	145.296374504565	1
4	1134	146.296374504565	0
4	1138	146.296374504565	1
4	1144	147.296374504565	0
4	1202	157.296374504565	1
4	1203	158.296374504565	0
4	1266	173.296374504565	1
4	1268	174.296374504565	0
4	1314	185.296374504565	1
4	1315	185.512796010413	0
4	1563	253.296374504565	1
4	1564	253.796374504565	0
4	1645	268.296374504565	1
4	1646	268.458489758623	0
4	1654	269.296374504565	1
4	1655	269.458489758623	0
4	1657	269.458489758623	1
4	1662	270.458489758623	0
4	1666	270.458489758623	1
4	1673	271.458489758623	0
4	1992	357.404159268681	1
4	1993	358.296374504565	0
4	2139	390.80492252321	1
4	2140	391.796374504565	0
4	2153	393.296374504565	1
4	2154	393.796374504565	0
4	2159	394.484703664852	1
4	2160	394.796374504565	0
4	2207	405.296374504565	1
4	2208	405.796374504565	0
4	2210	405.796374504565	1
4	2212	406.796374504565	0
4	2215	406.796374504565	1
4	2219	407.796374504565	0
4	2230	408.796374504565	1
4	2234	409.796374504565	0
4	2261	413.296374504565	1
4	2264	414.296374504565	0
4	2356	433.688071819415	1
4	2357	434.296374504565	0
4	2383	440.39604774991	1
4	2387	441.39604774991	0
5	0	0	0
5	3	0.0005	1
5	4	0.0005	2
5	5	0.0005	3
5	6	0.0005	4
5	7	0.0005	5
5	8	0.0005	6
5	9	0.0005	7
5	10	0.0005	8
5	11	0.0005	9
5	12	0.0005	10
5	13	0.0005	11
5	14	0.0005	12
5	15	0.0005	13
5	16	0.0005	14
5	17	0.0005	15
5	18	0.0005	16
5	19	0.0005	17
5	20	0.0005	18
5	21	0.0005	19
5	22	0.0005	20
5	23	0.0005	21
5	24	0.0005	22
5	25	0.0005	23
5	26	0.0005	24
5	27	0.796374504565	23
5	29	1.694934893048	22
5	33	2.296374504565	23
5	34	2.950865651095	22
5	39	3.874088782565	21
5	41	4.661289922546	20
5	49	6.540253976748	19
5	57	7.578413277411	18
5	61	7.796374504565	19
5	62	7.931572416548	18
5	75	9.296374504565	19
5	82	11.246484696476	18
5	86	11.296374504565	19
5	87	11.320170051941	18
5	89	11.411331078065	17
5	91	12.455943586373	16
5	93	12.476369174772	15
5	98	12.935617312027	14
5	102	13.296374504565	15
5	113	15.796374504565	16
5	115	16.085787240702	15
5	120	16.704716700328	14
5	126	17.296374504565	15
5	131	17.840655642038	14
5	133	18.611490300505	13
5	137	18.796374504565	14
5	144	21.505910778492	13
5	149	22.147605480523	12
5	157	22.353808762553	11
5	159	22.962891185736	10
5	161	23.206939676472	9
5	167	23.296374504565	10
5	168	23.296374504565	11
5	169	24.047274382084	10
5	173	24.296374504565	11
5	174	24.43904519276	10
5	185	25.398593170128	9
5	190	25.996339246946	8
5	194	26.296374504565	9
5	195	26.945833830442	8
5	203	29.272184892136	7
5	221	32.296374504565	8
5	223	32.77239857659	7
5	228	33.224500636814	6
5	242	34.068928430341	5
5	266	36.796374504565	6
5	268	37.261875072394	5
5	273	37.542152080872	4
5	275	37.715279537018	3
5	279	37.796374504565	4
5	280	38.12778076694	3
5	282	38.276493036192	2
5	292	38.796374504565	3
5	295	39.296374504565	4
5	296	39.783128369464	3
5	307	40.75823030362	2
5	322	41.796374504565	3
5	326	42.296374504565	4
5	339	44.331818675964	3
5	341	44.777238137883	2
5	343	45.128414227264	1
5	351	45.784060511627	0
5	411	53.296374504565	1
5	414	53.796374504565	2
5	415	53.897220414655	1
5	421	54.796374504565	2
5	423	55.738502886142	1
5	428	56.245703009398	0
5	434	56.296374504565	1
5	436	57.050500409199	0
5	442	57.296374504565	1
5	453	58.816241481612	0
5	459	59.296374504565	1
5	460	59.296374504565	2
5	463	59.796374504565	3
5	469	60.796374504565	4
5	476	62.091384659326	3
5	484	63.110043389344	2
5	488	63.296374504565	3
5	509	65.296374504565	4
5	514	65.796374504565	5
5	515	65.796374504565	6
5	516	66.162325046228	5
5	518	66.538063888634	4
5	525	66.796374504565	5
5	535	68.672894338617	4
5	539	68.796374504565	5
5	542	69.296374504565	6
5	543	69.705691349262	5
5	554	70.670144914755	4
5	560	71.296374504565	5
5	561	71.296374504565	6
5	562	71.305272630385	5
5	567	72.267647686156	4
5	573	72.796374504565	5
5	575	72.827608756229	4
5	577	72.924531510805	3
5	582	73.768419983395	2
5	591	74.296374504565	3
5	592	74.296374504565	4
5	593	74.570971969153	3
5	598	75.135582470273	2
5	615	77.404216462965	1
5	617	77.509829106593	0
5	714	89.296374504565	1
5	715	89.494204012024	0
5	735	92.296374504565	1
5	739	93.204338531889	0
5	743	93.296374504565	1
5	749	93.796374504565	2
5	750	94.735169758156	1
5	752	94.786852663951	0
5	762	95.296374504565	1
5	763	95.647776300631	0
5	870	108.796374504565	1
5	871	109.101979406379	0
5	891	111.796374504565	1
5	892	112.683876433048	0
5	921	116.796374504565	1
5	922	116.905419117273	0
5	966	122.296374504565	1
5	967	122.538294149336	0
5	1076	136.296374504565	1
5	1077	136.296374504565	2
5	1078	137.086364109046	1
5	1082	137.296374504565	2
5	1086	138.302054582404	1
5	1091	138.966862331955	0
5	1110	141.586364109046	1
5	1115	142.296374504565	2
5	1117	142.760886115042	1
5	1121	144.260886115042	2
5	1131	145.743086790514	1
5	1139	146.73855043388	0
5	1213	161.296374504565	1
5	1215	161.905315509548	0
5	1281	177.296374504565	1
5	1282	177.411261926472	0
5	1605	261.296374504565	1
5	1608	261.589211134055	2
5	1609	261.809301496393	1
5	1613	263.296374504565	2
5	1617	264.458489758623	1
5	1625	265.397991744486	0
5	1635	266.796374504565	1
5	1636	267.434285931757	0
5	1690	274.796374504565	1
5	1694	276.955936623026	0
5	1762	290.296374504565	1
5	1763	290.638394245747	0
5	1855	318.921800995575	1
5	1856	319.467600385919	0
5	2236	409.796374504565	1
5	2243	411.350426988428	0
5	2250	412.101271427263	1
5	2251	412.129962017258	0
5	2269	414.350426988428	1
5	2270	414.408904450943	0
5	2365	435.296374504565	1
5	2368	437.296374504565	2
5	2369	437.39604774991	1
5	2371	438.045458476704	0
