file 26118 1415128950                                           
version 2
run General-0-20141104-20:20:42-13697
attr configname General
attr datetime 20141104-20:20:42
attr experiment General
attr inifile routerTerminal.ini
attr iterationvars ""
attr iterationvars2 $repetition=0
attr measurement ""
attr network Network1
attr processid 13697
attr repetition 0
attr replication #0
attr resultdir results
attr runnumber 0
attr seedset 0

vector 0  Network1.queue  queueLength:vector  ETV
attr interpolationmode  sample-hold
attr title  "queue length, vector"
vector 1  Network1.queue1  queueLength:vector  ETV
attr interpolationmode  sample-hold
attr title  "queue length, vector"
vector 2  Network1.queue2  queueLength:vector  ETV
attr interpolationmode  sample-hold
attr title  "queue length, vector"
vector 3  Network1.queue3  queueLength:vector  ETV
attr interpolationmode  sample-hold
attr title  "queue length, vector"
vector 4  Network1.queue4  queueLength:vector  ETV
attr interpolationmode  sample-hold
attr title  "queue length, vector"
vector 5  Network1.Terminal  queueLength:vector  ETV
attr interpolationmode  sample-hold
attr title  "queue length, vector"
0	1106 5476 0 2378 0 440.39604774991 223 0 15 1355 12139
1	6582 6221 0 2404 0 444.296374504565 238 0 24 3975 79667
2	12803 3651 0 2401 0 443.39604774991 146 0 6 239 833
3	16454 3456 0 2399 0 443.39604774991 139 0 3 119 185
4	19910 1880 0 2387 0 441.39604774991 75 0 4 59 105
5	21790 4328 0 2371 0 438.045458476704 187 0 24 1155 15605
