version 2
run General-0-20141030-08:07:37-3060
attr configname General
attr datetime 20141030-08:07:37
attr experiment General
attr inifile omnetpp.ini
attr iterationvars ""
attr iterationvars2 $repetition=0
attr measurement ""
attr network Network
attr processid 3060
attr repetition 0
attr replication #0
attr resultdir results
attr runnumber 0
attr seedset 0

vector 0  Network.ActiveQueue1  queueLength:vector  ETV
attr interpolationmode  sample-hold
attr title  "queue length, vector"
vector 1  Network.ActiveQueue2  queueLength:vector  ETV
attr interpolationmode  sample-hold
attr title  "queue length, vector"
vector 3  Network.myQueue  queueLength:vector  ETV
attr interpolationmode  sample-hold
attr title  "queue length, vector"
vector 4  Network.multigateQueue  queueLength:vector  ETV
attr interpolationmode  sample-hold
attr title  "queue length, vector"
vector 2  Network.sink  lifeTime:vector  ETV
attr interpolationmode  none
attr title  "lifetime of arrived jobs, vector"
attr unit  s
0	0	0	0
1	0	0	0
2	28	0.00067958745	0.0006
2	41	0.00087958745	0.000710143962
2	52	0.00107958745	0.000784550887
2	65	0.00127958745	0.000798590466
2	82	0.00147958745	0.000906268153
2	95	0.00167958745	0.00091111362
2	104	0.00187958745	0.001032393507
2	119	0.00207958745	0.001044497102
2	130	0.00227958745	0.001189392254
2	143	0.00247958745	0.001291691612
2	156	0.00267958745	0.001387875682
2	169	0.00287958745	0.001539362866
2	180	0.00307958745	0.001086812899
2	197	0.00327958745	0.001254977285
2	212	0.00347958745	0.001406617075
2	223	0.00367958745	0.001541672441
2	232	0.00387958745	0.00158478283
2	247	0.00407958745	0.001392962758
2	258	0.00427958745	0.001543075558
2	269	0.00447958745	0.00148325015
2	278	0.00467958745	0.001502413224
2	289	0.00487958745	0.001313593401
2	302	0.00507958745	0.001198576409
2	313	0.00527958745	0.001247997984
2	326	0.00547958745	0.001432874899
2	341	0.00567958745	0.001428843474
2	354	0.00587958745	0.001424754253
2	369	0.00607958745	0.001240232067
2	378	0.00627958745	0.00137606115
2	389	0.00647958745	0.001415537195
2	406	0.00667958745	0.001454136988
2	421	0.00687958745	0.001592244043
2	436	0.00707958745	0.0013133899
2	455	0.00727958745	0.001411246713
2	472	0.00747958745	0.001524014594
2	485	0.00767958745	0.001342016114
2	494	0.00787958745	0.001399879646
2	505	0.00807958745	0.001526096917
2	518	0.00827958745	0.001397002414
2	533	0.00847958745	0.001463473396
2	544	0.00867958745	0.001342387003
2	561	0.00887958745	0.001526173355
2	570	0.00907958745	0.001173727492
2	581	0.00927958745	0.001140836155
3	0	0	0
3	4	0.000169443488	1
3	5	0.00027958745	0
3	10	0.000295036563	1
3	11	0.00047958745	0
3	18	0.000480996984	1
3	20	0.000573319297	2
3	21	0.00067958745	1
3	31	0.00076847383	2
3	33	0.000847193943	3
3	34	0.00087958745	2
3	44	0.001035090348	3
3	45	0.00107958745	2
3	55	0.001090195196	3
3	57	0.001187895838	4
3	58	0.00127958745	3
3	68	0.001291711768	4
3	70	0.001340224584	5
3	75	0.00147958745	4
3	88	0.00167958745	3
3	97	0.00187958745	2
3	107	0.001992774551	3
3	109	0.002024610165	4
3	111	0.002072970375	5
3	112	0.00207958745	4
3	122	0.002137915009	5
3	123	0.00227958745	4
3	133	0.00229480462	5
3	136	0.00247958745	4
3	149	0.00267958745	3
3	159	0.002686624692	4
3	161	0.002736511892	5
3	162	0.00287958745	4
3	172	0.0029963373	5
3	173	0.00307958745	4
3	183	0.003177174226	5
3	190	0.00327958745	4
3	205	0.00347958745	3
3	215	0.003565994049	4
3	216	0.00367958745	3
3	225	0.00387958745	2
3	235	0.003881011041	3
3	237	0.004031589466	4
3	239	0.004046712551	5
3	240	0.00407958745	4
3	250	0.004250743976	5
3	251	0.00427958745	4
3	261	0.004454833197	5
3	262	0.00447958745	4
3	271	0.00467958745	3
3	281	0.004839355383	4
3	282	0.00487958745	3
3	292	0.0049035263	4
3	294	0.005064050255	5
3	295	0.00507958745	4
3	305	0.005225450462	5
3	306	0.00527958745	4
3	316	0.005287343407	5
3	319	0.00547958745	4
3	334	0.00567958745	3
3	344	0.00576619755	4
3	346	0.005868340737	5
3	347	0.00587958745	4
3	357	0.005955572856	5
3	362	0.00607958745	4
3	371	0.00627958745	3
3	381	0.006337571336	4
3	382	0.00647958745	3
3	392	0.006479707804	4
3	394	0.006553490533	5
3	399	0.00667958745	4
3	414	0.00687958745	3
3	424	0.006882585036	4
3	426	0.007016114054	5
3	429	0.00707958745	4
3	448	0.00727958745	3
3	458	0.007337200447	4
3	460	0.007353414095	5
3	465	0.00747958745	4
3	478	0.00767958745	3
3	487	0.00787958745	2
3	497	0.007905859958	3
3	498	0.00807958745	2
3	508	0.008138751295	3
3	510	0.00825326519	4
3	511	0.00827958745	3
3	521	0.008313039797	4
3	523	0.008357591646	5
3	526	0.00847958745	4
3	537	0.00867958745	3
3	547	0.00874262945	4
3	549	0.008862240229	5
3	554	0.00887958745	4
3	563	0.00907958745	3
3	573	0.009228929248	4
3	574	0.00927958745	3
3	584	0.009338820494	4
3	586	0.009444703907	5
3	587	0.00947958745	4
4	0	0	0
