file 27845 1415129622                                           
version 2
run General-0-20141104-20:32:17-14908
attr configname General
attr datetime 20141104-20:32:17
attr experiment General
attr inifile routerTerminal.ini
attr iterationvars ""
attr iterationvars2 $repetition=0
attr measurement ""
attr network Network1
attr processid 14908
attr repetition 0
attr replication #0
attr resultdir results
attr runnumber 0
attr seedset 0

vector 0  Network1.queue  queueLength:vector  ETV
attr interpolationmode  sample-hold
attr title  "queue length, vector"
vector 1  Network1.queue1  queueLength:vector  ETV
attr interpolationmode  sample-hold
attr title  "queue length, vector"
vector 2  Network1.queue2  queueLength:vector  ETV
attr interpolationmode  sample-hold
attr title  "queue length, vector"
vector 3  Network1.queue3  queueLength:vector  ETV
attr interpolationmode  sample-hold
attr title  "queue length, vector"
vector 4  Network1.queue4  queueLength:vector  ETV
attr interpolationmode  sample-hold
attr title  "queue length, vector"
vector 5  Network1.Terminal  queueLength:vector  ETV
attr interpolationmode  sample-hold
attr title  "queue length, vector"
0	1106 5632 0 2512 0 474.574094276733 229 0 15 1358 12142
1	6738 7246 0 2635 0 513.296374504565 276 0 24 4822 98582
2	13984 3937 0 2612 0 499.296374504565 157 0 6 246 842
3	17921 3664 0 2567 0 485.449827764291 147 0 3 123 189
4	21585 1880 0 2387 0 441.39604774991 75 0 4 59 105
5	23465 4380 0 2439 0 450.574376633731 189 0 24 1156 15606
