version 2
run General-0-20141028-17:41:21-6683
attr configname General
attr datetime 20141028-17:41:21
attr experiment General
attr inifile omnetpp.ini
attr iterationvars ""
attr iterationvars2 $repetition=0
attr measurement ""
attr network Network
attr processid 6683
attr repetition 0
attr replication #0
attr resultdir results
attr runnumber 0
attr seedset 0

vector 0  Network.ActiveQueue1  queueLength:vector  ETV
attr interpolationmode  sample-hold
attr title  "queue length, vector"
vector 1  Network.ActiveQueue2  queueLength:vector  ETV
attr interpolationmode  sample-hold
attr title  "queue length, vector"
vector 3  Network.myQueue  queueLength:vector  ETV
attr interpolationmode  sample-hold
attr title  "queue length, vector"
vector 2  Network.sink  lifeTime:vector  ETV
attr interpolationmode  none
attr title  "lifetime of arrived jobs, vector"
attr unit  s
0	0	0	0
1	0	0	0
2	22	0.00067958745	0.0006
2	32	0.00087958745	0.000710143962
2	40	0.00107958745	0.000784550887
2	50	0.00127958745	0.000798590466
2	64	0.00147958745	0.000906268153
2	74	0.00167958745	0.00091111362
2	80	0.00187958745	0.001032393507
2	92	0.00207958745	0.001044497102
2	100	0.00227958745	0.001189392254
2	110	0.00247958745	0.001291691612
2	120	0.00267958745	0.001387875682
2	130	0.00287958745	0.001539362866
2	138	0.00307958745	0.001086812899
2	152	0.00327958745	0.001254977285
2	164	0.00347958745	0.001406617075
2	172	0.00367958745	0.001541672441
2	178	0.00387958745	0.00158478283
2	190	0.00407958745	0.001392962758
2	198	0.00427958745	0.001543075558
2	206	0.00447958745	0.00148325015
2	212	0.00467958745	0.001502413224
2	220	0.00487958745	0.001313593401
2	230	0.00507958745	0.001198576409
2	238	0.00527958745	0.001247997984
2	248	0.00547958745	0.001432874899
3	0	0	0
3	4	0.000169443488	1
3	5	0.00027958745	0
3	8	0.000295036563	1
3	9	0.00047958745	0
3	14	0.000480996984	1
3	16	0.000573319297	2
3	17	0.00067958745	1
3	24	0.00076847383	2
3	26	0.000847193943	3
3	27	0.00087958745	2
3	34	0.001035090348	3
3	35	0.00107958745	2
3	42	0.001090195196	3
3	44	0.001187895838	4
3	45	0.00127958745	3
3	52	0.001291711768	4
3	54	0.001340224584	5
3	59	0.00147958745	4
3	69	0.00167958745	3
3	75	0.00187958745	2
3	82	0.001992774551	3
3	84	0.002024610165	4
3	86	0.002072970375	5
3	87	0.00207958745	4
3	94	0.002137915009	5
3	95	0.00227958745	4
3	102	0.00229480462	5
3	105	0.00247958745	4
3	115	0.00267958745	3
3	122	0.002686624692	4
3	124	0.002736511892	5
3	125	0.00287958745	4
3	132	0.0029963373	5
3	133	0.00307958745	4
3	140	0.003177174226	5
3	147	0.00327958745	4
3	159	0.00347958745	3
3	166	0.003565994049	4
3	167	0.00367958745	3
3	173	0.00387958745	2
3	180	0.003881011041	3
3	182	0.004031589466	4
3	184	0.004046712551	5
3	185	0.00407958745	4
3	192	0.004250743976	5
3	193	0.00427958745	4
3	200	0.004454833197	5
3	201	0.00447958745	4
3	207	0.00467958745	3
3	214	0.004839355383	4
3	215	0.00487958745	3
3	222	0.0049035263	4
3	224	0.005064050255	5
3	225	0.00507958745	4
3	232	0.005225450462	5
3	233	0.00527958745	4
3	240	0.005287343407	5
3	243	0.00547958745	4
