file 4730 1414652898                                            
version 2
run General-0-20141030-08:07:37-3060
attr configname General
attr datetime 20141030-08:07:37
attr experiment General
attr inifile omnetpp.ini
attr iterationvars ""
attr iterationvars2 $repetition=0
attr measurement ""
attr network Network
attr processid 3060
attr repetition 0
attr replication #0
attr resultdir results
attr runnumber 0
attr seedset 0

vector 0  Network.ActiveQueue1  queueLength:vector  ETV
attr interpolationmode  sample-hold
attr title  "queue length, vector"
vector 1  Network.ActiveQueue2  queueLength:vector  ETV
attr interpolationmode  sample-hold
attr title  "queue length, vector"
vector 3  Network.myQueue  queueLength:vector  ETV
attr interpolationmode  sample-hold
attr title  "queue length, vector"
vector 4  Network.multigateQueue  queueLength:vector  ETV
attr interpolationmode  sample-hold
attr title  "queue length, vector"
vector 2  Network.sink  lifeTime:vector  ETV
attr interpolationmode  none
attr title  "lifetime of arrived jobs, vector"
attr unit  s
0	1002 8 0 0 0 0 1 0 0 0 0
1	1010 8 0 0 0 0 1 0 0 0 0
2	1018 1520 28 581 0.00067958745 0.00927958745 44 0.0006 0.001592244043 0.056677539893 7.5668562282546e-05
3	2538 2184 0 587 0 0.00947958745 99 0 5 353 1401
4	4722 8 0 0 0 0 1 0 0 0 0
