version 2
run General-0-20141107-15:33:12-10411
attr configname General
attr datetime 20141107-15:33:12
attr experiment General
attr inifile routerTerminal.ini
attr iterationvars ""
attr iterationvars2 $repetition=0
attr measurement ""
attr network Network1
attr processid 10411
attr repetition 0
attr replication #0
attr resultdir results
attr runnumber 0
attr seedset 0

vector 0  Network1.queue1  queueLength:vector  ETV
attr interpolationmode  sample-hold
attr title  "queue length, vector"
vector 1  Network1.queue2  queueLength:vector  ETV
attr interpolationmode  sample-hold
attr title  "queue length, vector"
vector 2  Network1.queue3  queueLength:vector  ETV
attr interpolationmode  sample-hold
attr title  "queue length, vector"
vector 3  Network1.queue4  queueLength:vector  ETV
attr interpolationmode  sample-hold
attr title  "queue length, vector"
vector 4  Network1.allocate  queueLength:vector  ETV
attr interpolationmode  sample-hold
attr title  "queue length, vector"
0	0	0	0
0	38	0.0005	1
0	58	1.0005	2
0	93	2.5005	3
0	111	4.0005	2
0	151	7.0005	3
0	152	8.0005	2
0	168	12.0005	1
0	175	12.0005	2
0	184	14.5005	3
0	185	16.0005	2
0	204	18.0005	3
0	205	20.0005	2
0	232	24.0005	1
0	250	26.0005	2
0	254	28.0005	1
0	260	28.0005	2
0	265	28.0005	3
0	272	32.0005	2
0	276	32.0005	3
0	288	36.0005	2
0	293	36.0005	3
0	305	40.0005	2
0	310	40.0005	3
0	321	42.5005	4
0	324	44.0005	3
0	329	45.5005	4
0	330	48.0005	3
0	338	51.5005	4
0	339	52.0005	3
0	344	53.5005	4
0	345	56.0005	3
0	347	56.0005	4
0	348	60.0005	3
0	353	62.0005	4
0	354	64.0005	3
0	363	68.0005	2
0	377	71.0005	3
0	380	71.5005	4
0	381	72.0005	3
0	397	76.0005	2
0	399	76.0005	3
0	414	80.0005	2
0	430	84.0005	1
0	446	86.0005	2
0	447	88.0005	1
0	464	92.0005	0
0	468	92.0005	1
0	485	94.0005	2
0	489	94.0005	3
0	492	96.0005	2
0	499	96.0005	3
0	508	98.5005	4
0	511	100.0005	3
0	536	104.0005	2
0	538	104.0005	3
0	541	104.5005	4
0	546	108.0005	3
0	552	112.0005	2
0	563	113.0005	3
0	585	116.0005	2
0	601	120.0005	1
0	603	120.0005	2
0	620	122.5005	3
0	624	124.0005	2
0	656	128.0005	1
0	674	132.0005	0
0	715	136.0005	1
0	732	140.0005	0
0	740	140.0005	1
0	762	143.0005	2
0	763	144.0005	1
0	793	148.0005	0
0	840	152.5005	1
0	856	156.0005	0
0	858	156.0005	1
0	875	160.0005	0
0	877	160.0005	1
0	886	161.5005	2
0	897	164.0005	1
0	925	168.0005	0
0	930	168.0005	1
0	944	172.0005	0
0	986	177.5005	1
0	1005	181.5005	0
0	1015	182.0005	1
0	1028	184.5005	2
0	1032	185.5005	1
0	1040	186.5005	2
0	1053	189.5005	1
0	1070	190.5005	2
0	1071	190.5005	3
0	1077	192.5005	4
0	1078	193.5005	3
0	1089	197.5005	2
0	1091	197.5005	3
0	1094	198.0005	4
0	1095	201.5005	3
0	1123	205.5005	2
0	1133	206.0005	3
0	1144	209.5005	2
0	1157	212.5005	3
0	1158	213.5005	2
0	1169	215.0005	3
0	1175	216.5005	4
0	1178	217.5005	3
0	1189	221.5005	2
0	1198	225.5005	1
0	1215	228.5005	2
0	1216	229.5005	1
0	1231	233.5005	0
0	1235	233.5005	1
0	1242	237.5005	0
0	1261	239.0005	1
0	1264	239.5005	2
0	1267	241.5005	1
0	1280	245.0005	2
0	1281	245.5005	1
0	1285	245.5005	2
0	1286	245.5005	3
0	1298	249.5005	2
0	1302	249.5005	3
0	1318	253.5005	2
0	1333	256.0005	3
0	1335	257.5005	2
0	1343	258.0005	3
0	1346	259.0005	4
0	1347	261.5005	3
0	1361	265.5005	2
0	1366	266.0005	3
0	1378	269.5005	2
0	1404	273.0005	3
0	1405	273.5005	2
0	1414	277.5005	1
0	1419	277.5005	2
0	1430	281.0005	3
0	1431	281.5005	2
0	1466	285.5005	1
0	1476	288.0005	2
0	1480	289.5005	1
0	1485	289.5005	2
0	1497	293.5005	1
0	1534	297.5005	0
0	1541	297.5005	1
0	1565	301.0005	2
0	1566	301.0005	3
0	1567	301.5005	2
0	1581	305.5005	1
0	1600	309.0005	2
0	1601	309.5005	1
0	1613	311.0005	2
0	1622	313.5005	1
0	1630	313.5005	2
0	1637	315.0005	3
0	1640	317.0005	4
0	1641	317.5005	3
0	1648	319.5005	4
0	1649	321.5005	3
0	1651	321.5005	4
0	1652	325.5005	3
0	1657	327.0005	4
0	1658	329.5005	3
0	1667	333.5005	2
0	1694	337.5005	1
0	1702	337.5005	2
0	1709	341.5005	1
0	1719	341.5005	2
0	1728	343.0005	3
0	1733	343.5005	4
0	1734	345.5005	3
0	1736	345.5005	4
0	1739	349.5005	3
0	1744	349.5005	4
0	1747	353.5005	3
0	1766	357.5005	2
0	1783	361.5005	1
0	1797	362.5005	2
0	1803	364.0005	3
0	1806	365.5005	2
0	1811	366.0005	3
0	1816	366.5005	4
0	1817	369.5005	3
0	1819	369.5005	4
0	1820	373.5005	3
0	1841	377.0005	4
0	1842	377.5005	3
0	1850	381.5005	2
0	1860	381.5005	3
0	1862	381.5005	4
0	1864	385.5005	3
0	1872	389.5005	2
0	1877	389.5005	3
0	1884	393.5005	2
0	1895	395.0005	3
0	1909	397.5005	2
0	1914	397.5005	3
0	1922	400.0005	4
0	1925	401.5005	3
0	1939	403.5005	4
0	1942	405.5005	3
0	1951	405.5005	4
0	1954	409.5005	3
0	1959	410.5005	4
0	1960	413.5005	3
0	1969	417.5005	2
0	1980	417.5005	3
0	1989	421.5005	2
0	2000	425.5005	1
0	2011	428.5005	2
0	2018	429.5005	1
0	2029	431.0005	2
0	2035	433.5005	1
0	2054	435.0005	2
0	2060	437.5005	1
0	2073	439.0005	2
0	2080	441.5005	1
0	2088	443.0005	2
0	2094	445.5005	1
0	2104	447.0005	2
0	2110	449.0005	3
0	2111	449.5005	2
0	2121	450.5005	3
0	2124	451.0005	4
0	2125	453.5005	3
0	2132	455.5005	4
0	2133	457.5005	3
0	2145	461.5005	2
0	2147	461.5005	3
0	2159	465.5005	2
0	2169	466.0005	3
0	2183	469.5005	2
0	2200	471.5005	3
0	2213	473.5005	2
0	2236	477.5005	1
0	2241	478.5005	2
0	2261	481.0005	3
0	2262	481.5005	2
0	2272	481.5005	3
0	2273	481.5005	4
0	2284	485.5005	3
0	2292	487.0005	4
0	2293	489.5005	3
0	2295	489.5005	4
0	2298	493.5005	3
0	2303	495.0005	4
0	2304	497.5005	3
0	2313	501.5005	2
0	2323	503.0005	3
0	2327	505.5005	2
0	2344	508.5005	3
0	2347	509.5005	2
0	2367	513.5005	1
0	2378	515.0005	2
0	2381	516.0005	3
0	2382	517.5005	2
0	2393	519.0005	3
0	2400	521.5005	2
0	2412	524.5005	3
0	2413	525.5005	2
0	2415	525.5005	3
0	2422	529.5005	2
0	2427	529.5005	3
0	2436	529.5005	4
0	2441	533.5005	3
0	2445	533.5005	4
0	2446	537.5005	3
0	2448	537.5005	4
0	2449	541.5005	3
0	2451	541.5005	4
0	2452	545.5005	3
0	2462	547.5005	4
0	2463	549.5005	3
0	2472	553.5005	2
0	2476	553.5005	3
0	2483	557.5005	2
0	2487	557.5005	3
0	2499	559.5005	4
0	2500	561.5005	3
0	2508	565.5005	2
0	2513	565.5005	3
0	2530	569.5005	2
0	2534	569.5005	3
0	2547	573.5005	2
0	2555	575.0005	3
0	2561	576.5005	4
0	2562	577.5005	3
0	2564	577.5005	4
0	2567	581.5005	3
0	2575	583.5005	4
0	2578	585.5005	3
0	2583	585.5005	4
0	2586	589.5005	3
0	2591	591.5005	4
0	2592	593.5005	3
0	2597	595.0005	4
0	2598	597.5005	3
0	2603	598.5005	4
0	2604	601.5005	3
0	2609	602.5005	4
0	2610	605.5005	3
0	2616	609.5005	2
0	2620	609.5005	3
0	2633	613.5005	2
0	2656	617.5005	1
0	2663	618.0005	2
0	2664	618.0005	3
0	2692	621.5005	2
0	2702	623.0005	3
0	2711	623.0005	4
0	2720	625.5005	3
0	2729	629.5005	2
0	2734	630.0005	3
0	2743	632.5005	4
0	2744	633.5005	3
0	2752	633.5005	4
0	2759	637.5005	3
0	2780	641.5005	2
0	2787	641.5005	3
0	2815	645.5005	2
0	2825	647.0005	3
0	2837	649.5005	2
0	2841	649.5005	3
0	2851	653.5005	2
0	2875	656.0005	3
0	2876	657.5005	2
0	2889	659.5005	3
0	2898	661.5005	2
0	2909	665.5005	1
0	2914	665.5005	2
0	2917	667.5005	3
0	2918	669.5005	2
0	2947	671.0005	3
0	2952	671.5005	4
0	2955	673.5005	3
0	2961	677.5005	2
0	2989	681.5005	1
0	2994	681.5005	2
0	2997	682.0005	3
0	3003	685.5005	2
0	3009	685.5005	3
0	3016	687.0005	4
0	3019	689.5005	3
0	3021	689.5005	4
0	3022	693.5005	3
0	3024	693.5005	4
0	3025	697.5005	3
0	3034	701.5005	2
0	3039	701.5005	3
0	3048	705.5005	2
0	3082	707.5005	3
0	3085	709.5005	2
0	3093	711.0005	3
0	3101	713.0005	4
0	3102	713.5005	3
0	3104	713.5005	4
0	3105	717.5005	3
0	3113	718.5005	4
0	3116	721.5005	3
0	3130	723.5005	4
0	3131	725.5005	3
0	3133	725.5005	4
0	3140	729.5005	3
0	3145	729.5005	4
0	3148	733.5005	3
0	3156	736.5005	4
0	3157	737.5005	3
0	3165	741.0005	4
0	3166	741.5005	3
0	3183	743.0005	4
0	3184	745.5005	3
0	3197	747.5005	4
0	3198	749.5005	3
0	3215	753.5005	2
0	3242	757.5005	1
0	3260	759.5005	2
0	3268	761.5005	1
0	3276	762.0005	2
0	3288	765.5005	1
0	3316	768.5005	2
0	3317	769.5005	1
0	3321	769.5005	2
0	3330	770.5005	3
0	3337	773.5005	2
0	3339	773.5005	3
0	3350	774.5005	4
0	3353	777.5005	3
0	3371	780.0005	4
0	3372	781.5005	3
0	3382	784.5005	4
0	3383	785.5005	3
0	3388	785.5005	4
0	3389	789.5005	3
0	3400	793.5005	2
0	3408	794.5005	3
0	3415	797.5005	2
0	3419	797.5005	3
0	3426	801.5005	2
0	3431	801.5005	3
0	3434	802.5005	4
0	3437	805.5005	3
0	3450	805.5005	4
0	3455	809.5005	3
0	3463	811.5005	4
0	3464	813.5005	3
0	3466	813.5005	4
0	3469	817.5005	3
0	3474	817.5005	4
0	3477	821.5005	3
0	3499	824.5005	4
0	3500	825.5005	3
0	3528	829.5005	2
0	3548	833.5005	1
0	3553	833.5005	2
0	3556	834.0005	3
0	3571	837.5005	2
0	3575	837.5005	3
0	3578	838.5005	4
0	3581	841.5005	3
0	3598	845.5005	2
0	3614	849.5005	1
0	3622	851.0005	2
0	3637	853.5005	1
0	3662	857.5005	0
0	3790	878.5005	1
0	3791	879.5005	0
0	3795	879.5005	1
0	3818	883.5005	0
0	3826	883.5005	1
0	3846	887.5005	0
0	3865	887.5005	1
0	3883	891.5005	0
0	3890	891.5005	1
0	3899	893.5005	2
0	3904	895.5005	1
0	3908	895.5005	2
0	3937	898.5005	3
0	3938	899.5005	2
0	3958	902.0005	3
0	3959	903.5005	2
0	3967	905.0005	3
0	3971	907.5005	2
0	3985	909.0005	3
0	3999	911.5005	2
0	4003	911.5005	3
0	4013	915.5005	2
0	4032	917.5005	3
0	4038	919.5005	2
0	4046	921.5005	3
0	4050	923.5005	2
0	4068	927.5005	1
0	4091	929.5005	2
0	4104	931.5005	1
0	4109	931.5005	2
0	4121	935.0005	3
0	4122	935.5005	2
0	4136	939.5005	1
0	4152	941.0005	2
0	4158	943.0005	3
0	4159	943.5005	2
0	4183	947.5005	1
0	4188	947.5005	2
0	4200	949.0005	3
0	4201	949.0005	4
0	4202	951.5005	3
0	4216	955.5005	2
0	4221	955.5005	3
0	4228	959.5005	2
0	4232	959.5005	3
0	4242	961.0005	4
0	4245	963.5005	3
0	4260	965.0005	4
0	4263	967.5005	3
0	4268	967.5005	4
0	4269	971.5005	3
0	4279	974.5005	4
0	4280	975.5005	3
0	4282	975.5005	4
0	4283	979.5005	3
0	4295	983.5005	2
0	4301	983.5005	3
0	4302	983.5005	4
0	4303	987.5005	3
0	4312	991.5005	2
0	4314	991.5005	3
0	4341	995.0005	4
0	4342	995.5005	3
0	4344	995.5005	4
0	4347	999.5005	3
0	4349	999.5005	4
0	4350	1003.5005	3
0	4359	1007.5005	2
0	4370	1007.5005	3
0	4378	1009.5005	4
0	4381	1011.5005	3
0	4397	1015.5005	2
0	4405	1015.5005	3
0	4413	1017.5005	4
0	4416	1019.5005	3
0	4422	1023.5005	2
0	4449	1026.5005	3
0	4450	1027.5005	2
0	4452	1027.5005	3
0	4455	1028.0005	4
0	4456	1031.5005	3
0	4468	1035.5005	2
0	4494	1039.5005	1
0	4510	1039.5005	2
0	4521	1041.0005	3
0	4532	1043.5005	2
0	4540	1043.5005	3
0	4557	1047.5005	2
0	4570	1051.5005	1
0	4595	1055.5005	0
0	4642	1069.0005	1
0	4651	1073.0005	0
0	4662	1075.0005	1
0	4666	1077.0005	0
0	4670	1077.0005	1
0	4681	1081.0005	0
0	4685	1081.0005	1
0	4695	1083.0005	2
0	4698	1085.0005	1
0	4711	1086.0005	2
0	4714	1087.0005	3
0	4715	1089.0005	2
0	4726	1089.0005	3
0	4734	1092.0005	4
0	4735	1093.0005	3
0	4739	1093.0005	4
0	4740	1097.0005	3
0	4749	1101.0005	2
0	4763	1104.5005	3
0	4764	1105.0005	2
0	4769	1105.0005	3
0	4789	1109.0005	2
0	4800	1110.5005	3
0	4808	1113.0005	2
0	4815	1114.0005	3
0	4822	1117.0005	2
0	4827	1117.5005	3
0	4836	1121.0005	2
0	4851	1125.0005	1
0	4856	1126.0005	2
0	4866	1129.0005	1
0	4871	1129.0005	2
0	4879	1129.0005	3
0	4890	1131.0005	4
0	4891	1133.0005	3
0	4901	1137.0005	2
0	4905	1137.0005	3
0	4906	1137.0005	4
0	4907	1141.0005	3
0	4915	1142.5005	4
0	4918	1145.0005	3
0	4937	1148.5005	4
0	4938	1149.0005	3
0	4948	1153.0005	2
0	4953	1153.0005	3
0	4960	1157.0005	2
0	4968	1160.5005	3
0	4969	1161.0005	2
0	4976	1162.5005	3
0	4983	1163.5005	4
0	4984	1165.0005	3
0	5003	1169.0005	2
0	5013	1170.5005	3
0	5019	1171.0005	4
0	5020	1173.0005	3
0	5035	1175.5005	4
0	5036	1177.0005	3
0	5038	1177.0005	4
0	5039	1181.0005	3
0	5047	1184.5005	4
0	5048	1185.0005	3
0	5050	1185.0005	4
0	5051	1189.0005	3
0	5066	1193.0005	2
0	5071	1193.0005	3
0	5086	1197.0005	2
0	5091	1197.0005	3
0	5114	1198.5005	4
0	5117	1201.0005	3
0	5131	1201.0005	4
0	5136	1205.0005	3
0	5150	1209.0005	2
0	5181	1213.0005	1
0	5183	1213.0005	2
0	5194	1217.0005	1
0	5221	1220.5005	2
0	5222	1221.0005	1
0	5229	1221.0005	2
0	5235	1222.5005	3
0	5246	1225.0005	2
0	5254	1226.5005	3
0	5265	1229.0005	2
0	5267	1229.0005	3
0	5279	1233.0005	2
0	5281	1233.0005	3
0	5290	1237.0005	2
0	5295	1237.5005	3
0	5310	1241.0005	2
0	5326	1245.0005	1
0	5339	1246.0005	2
0	5343	1246.5005	3
0	5352	1249.0005	2
0	5362	1250.0005	3
0	5368	1253.0005	2
0	5374	1253.0005	3
0	5395	1257.0005	2
0	5409	1261.0005	1
0	5433	1263.0005	2
0	5434	1265.0005	1
0	5469	1267.0005	2
0	5470	1269.0005	1
0	5484	1270.0005	2
0	5493	1272.5005	3
0	5494	1273.0005	2
0	5526	1274.5005	3
0	5534	1277.0005	2
0	5555	1280.0005	3
0	5556	1281.0005	2
0	5575	1284.5005	3
0	5576	1285.0005	2
0	5590	1288.0005	3
0	5591	1289.0005	2
0	5608	1293.0005	1
0	5632	1297.0005	0
0	5636	1297.0005	1
0	5637	1297.0005	2
0	5641	1301.0005	1
0	5646	1301.0005	2
0	5650	1305.0005	1
0	5655	1305.0005	2
0	5658	1305.0005	3
0	5664	1309.0005	2
0	5678	1310.5005	3
0	5681	1312.0005	4
0	5682	1313.0005	3
0	5691	1314.0005	4
0	5692	1317.0005	3
0	5694	1317.0005	4
0	5695	1321.0005	3
0	5701	1325.0005	2
0	5720	1328.0005	3
0	5721	1329.0005	2
0	5729	1329.0005	3
0	5741	1333.0005	2
0	5748	1333.0005	3
0	5757	1334.5005	4
0	5762	1337.0005	3
0	5764	1337.0005	4
0	5765	1341.0005	3
0	5786	1343.5005	4
0	5787	1345.0005	3
0	5795	1349.0005	2
0	5803	1351.0005	3
0	5804	1353.0005	2
0	5822	1357.0005	1
0	5849	1361.0005	0
0	5853	1361.0005	1
0	5860	1363.0005	2
0	5863	1365.0005	1
0	5882	1367.0005	2
0	5888	1367.0005	3
0	5891	1369.0005	2
0	5911	1373.0005	1
0	5929	1374.0005	2
0	5943	1377.0005	1
0	5956	1378.0005	2
0	5962	1378.5005	3
0	5972	1381.0005	2
0	5977	1381.0005	3
0	5986	1385.0005	2
0	5990	1385.0005	3
0	6003	1386.5005	4
0	6008	1389.0005	3
0	6024	1393.0005	2
0	6028	1393.0005	3
0	6032	1394.0005	4
0	6033	1397.0005	3
0	6044	1399.0005	4
0	6045	1401.0005	3
0	6061	1402.5005	4
0	6070	1405.0005	3
0	6078	1406.5005	4
0	6081	1409.0005	3
0	6095	1412.5005	4
0	6096	1413.0005	3
0	6102	1413.0005	4
0	6103	1417.0005	3
0	6121	1421.0005	2
0	6137	1423.0005	3
0	6138	1425.0005	2
0	6143	1425.0005	3
0	6149	1427.5005	4
0	6150	1429.0005	3
0	6163	1431.0005	4
0	6166	1433.0005	3
0	6172	1437.0005	2
0	6196	1440.0005	3
0	6197	1441.0005	2
0	6234	1445.0005	1
0	6245	1445.5005	2
0	6250	1446.0005	3
0	6263	1449.0005	2
0	6275	1451.0005	3
0	6278	1452.0005	4
0	6279	1453.0005	3
0	6284	1454.0005	4
0	6285	1457.0005	3
0	6287	1457.0005	4
0	6288	1461.0005	3
0	6298	1463.0005	4
0	6299	1465.0005	3
0	6310	1469.0005	2
0	6319	1473.0005	1
0	6327	1474.5005	2
0	6331	1477.0005	1
0	6337	1481.0005	0
0	6339	1481.0005	1
0	6340	1485.0005	0
0	6348	1488.0005	1
0	6349	1489.0005	0
0	6354	1491.0005	1
0	6355	1493.0005	0
1	0	0	0
1	160	8.0005	1
1	163	10.0005	0
1	165	10.0005	1
1	170	12.0005	0
1	199	17.0005	1
1	200	18.0005	0
1	218	20.0005	1
1	222	22.0005	0
1	231	23.5005	1
1	233	24.0005	0
1	245	25.5005	1
1	246	26.0005	0
1	371	69.0005	1
1	372	69.5005	0
1	424	81.0005	1
1	425	82.0005	0
1	427	82.0005	1
1	431	84.0005	0
1	440	84.0005	1
1	442	84.0005	2
1	444	86.0005	1
1	449	88.0005	0
1	454	88.0005	1
1	458	90.0005	0
1	460	90.0005	1
1	465	92.0005	0
1	477	92.0005	1
1	481	94.0005	0
1	587	116.0005	1
1	590	117.5005	0
1	592	117.5005	1
1	593	119.5005	0
1	649	126.5005	1
1	659	128.5005	0
1	673	131.0005	1
1	678	132.0005	2
1	679	132.5005	1
1	683	132.5005	2
1	693	134.5005	1
1	704	135.0005	2
1	716	136.5005	1
1	726	138.5005	0
1	731	138.5005	1
1	741	140.5005	0
1	765	144.0005	1
1	766	144.5005	0
1	782	144.5005	1
1	785	146.0005	2
1	786	146.5005	1
1	792	146.5005	2
1	802	148.5005	1
1	815	150.0005	2
1	816	150.5005	1
1	821	150.5005	2
1	826	151.5005	3
1	832	152.5005	2
1	843	154.5005	1
1	855	155.5005	2
1	859	156.5005	1
1	866	157.5005	2
1	867	158.5005	1
1	872	158.5005	2
1	878	160.5005	1
1	887	162.5005	0
1	902	164.0005	1
1	905	164.0005	2
1	908	164.5005	1
1	916	164.5005	2
1	919	166.5005	1
1	924	167.5005	2
1	932	168.5005	1
1	935	168.5005	2
1	938	170.5005	1
1	943	170.5005	2
1	946	172.0005	3
1	947	172.5005	2
1	955	174.0005	3
1	957	174.5005	2
1	972	176.0005	3
1	973	176.5005	2
1	989	178.5005	1
1	991	178.5005	2
1	996	180.5005	1
1	1009	181.5005	2
1	1016	182.5005	1
1	1026	184.5005	0
1	1034	185.5005	1
1	1038	186.5005	0
1	1061	189.5005	1
1	1064	190.5005	0
1	1154	211.0005	1
1	1155	212.5005	0
1	1194	222.0005	1
1	1195	223.5005	0
1	1197	223.5005	1
1	1199	225.5005	0
1	1209	227.0005	1
1	1210	227.5005	0
1	1221	229.5005	1
1	1224	230.0005	2
1	1225	231.5005	1
1	1230	231.5005	2
1	1232	233.5005	1
1	1236	233.5005	2
1	1238	235.5005	1
1	1241	235.5005	2
1	1243	237.5005	1
1	1253	237.5005	2
1	1262	239.5005	1
1	1268	241.5005	0
1	1271	241.5005	1
1	1272	241.5005	2
1	1275	243.5005	1
1	1282	245.5005	0
1	1399	272.5005	1
1	1401	273.0005	0
1	1407	273.5005	1
1	1408	275.0005	0
1	1410	275.0005	1
1	1411	277.0005	0
1	1413	277.0005	1
1	1420	279.0005	0
1	1425	279.0005	1
1	1428	281.0005	0
1	1457	284.0005	1
1	1460	285.0005	0
1	1465	285.0005	1
1	1468	285.5005	2
1	1469	287.0005	1
1	1477	289.0005	0
1	1479	289.0005	1
1	1486	291.0005	0
1	1493	292.0005	1
1	1494	293.0005	0
1	1514	294.5005	1
1	1517	295.0005	0
1	1547	297.5005	1
1	1550	298.0005	2
1	1551	299.0005	1
1	1560	301.0005	0
1	1571	301.5005	1
1	1572	303.0005	0
1	1574	303.0005	1
1	1575	305.0005	0
1	1580	305.0005	1
1	1583	305.5005	2
1	1584	307.0005	1
1	1597	308.5005	2
1	1598	309.0005	1
1	1608	309.5005	2
1	1611	311.0005	1
1	1616	313.0005	0
1	1621	313.0005	1
1	1633	315.0005	0
1	1705	339.0005	1
1	1706	339.5005	0
1	1708	339.5005	1
1	1710	341.5005	0
1	1774	359.0005	1
1	1775	360.0005	0
1	1780	360.0005	1
1	1786	362.0005	0
1	1800	363.5005	1
1	1801	364.0005	0
1	1993	421.5005	1
1	1994	423.0005	0
1	1996	423.0005	1
1	1997	425.0005	0
1	1999	425.0005	1
1	2003	427.0005	0
1	2007	427.0005	1
1	2012	429.0005	0
1	2025	430.5005	1
1	2026	430.5005	2
1	2027	431.0005	1
1	2032	433.0005	0
1	2034	433.0005	1
1	2043	434.5005	2
1	2046	435.0005	1
1	2057	437.0005	0
1	2062	437.5005	1
1	2067	439.0005	0
1	2072	439.0005	1
1	2074	441.0005	0
1	2082	441.5005	1
1	2085	442.0005	2
1	2086	443.0005	1
1	2091	445.0005	0
1	2093	445.0005	1
1	2099	445.5005	2
1	2102	447.0005	1
1	2105	449.0005	0
1	2218	473.5005	1
1	2219	475.0005	0
1	2371	513.5005	1
1	2373	514.0005	0
1	2375	514.0005	1
1	2379	516.0005	0
1	2402	521.5005	1
1	2403	522.5005	0
1	2405	522.5005	1
1	2410	524.5005	0
1	2658	617.5005	1
1	2659	618.0005	0
1	2870	654.5005	1
1	2872	656.0005	0
1	2878	657.5005	1
1	2880	658.0005	0
1	2903	661.5005	1
1	2904	663.5005	0
1	2906	663.5005	1
1	2910	665.5005	0
1	2913	665.5005	1
1	2915	667.5005	0
1	3071	706.5005	1
1	3073	707.5005	0
1	3222	753.5005	1
1	3223	754.0005	0
1	3228	754.0005	1
1	3233	756.0005	0
1	3241	756.0005	1
1	3247	757.5005	2
1	3250	758.0005	1
1	3262	760.0005	0
1	3265	760.0005	1
1	3274	762.0005	0
1	3307	767.0005	1
1	3308	768.5005	0
1	3600	845.5005	1
1	3601	847.0005	0
1	3606	847.0005	1
1	3608	849.0005	0
1	3613	849.0005	1
1	3617	851.0005	0
1	3655	854.5005	1
1	3656	855.5005	0
1	3660	855.5005	1
1	3661	855.5005	2
1	3664	857.5005	1
1	3668	857.5005	2
1	3672	858.5005	3
1	3673	859.5005	2
1	3678	859.5005	3
1	3682	861.5005	2
1	3698	863.5005	1
1	3706	864.0005	2
1	3714	865.0005	3
1	3716	865.5005	2
1	3719	865.5005	3
1	3729	867.5005	2
1	3731	867.5005	3
1	3742	869.5005	2
1	3747	869.5005	3
1	3752	871.5005	2
1	3754	871.5005	3
1	3766	873.5005	2
1	3770	873.5005	3
1	3774	873.5005	4
1	3777	875.5005	3
1	3782	877.5005	2
1	3792	879.5005	1
1	3799	879.5005	2
1	3804	881.5005	1
1	3819	883.5005	0
1	3822	883.5005	1
1	3840	885.5005	0
1	3874	889.0005	1
1	3876	889.5005	0
1	3894	892.0005	1
1	3895	893.5005	0
1	3943	899.5005	1
1	3946	900.0005	0
1	3955	901.5005	1
1	3956	902.0005	0
1	3961	903.5005	1
1	3962	904.0005	0
1	4064	925.0005	1
1	4065	926.0005	0
1	4067	926.0005	1
1	4078	927.5005	2
1	4080	928.0005	1
1	4094	930.0005	0
1	4118	934.5005	1
1	4119	935.0005	0
1	4124	935.5005	1
1	4125	937.0005	0
1	4127	937.0005	1
1	4128	939.0005	0
1	4133	939.0005	1
1	4149	940.5005	2
1	4150	941.0005	1
1	4153	943.0005	0
1	4169	944.5005	1
1	4170	945.0005	0
1	4177	945.0005	1
1	4180	947.0005	0
1	4559	1047.5005	1
1	4562	1049.0005	0
1	4564	1049.0005	1
1	4567	1051.0005	0
1	4572	1051.5005	1
1	4581	1052.5005	2
1	4584	1053.0005	1
1	4589	1054.0005	2
1	4592	1055.0005	1
1	4594	1055.0005	2
1	4608	1055.5005	3
1	4611	1057.0005	2
1	4613	1057.0005	3
1	4616	1059.0005	2
1	4618	1059.0005	3
1	4621	1059.5005	4
1	4622	1061.0005	3
1	4624	1061.0005	4
1	4625	1063.0005	3
1	4627	1063.0005	4
1	4628	1065.0005	3
1	4631	1067.0005	2
1	4636	1067.0005	3
1	4638	1069.0005	2
1	4645	1071.0005	1
1	4652	1073.0005	0
1	4655	1073.0005	1
1	4659	1074.0005	2
1	4660	1075.0005	1
1	4665	1075.5005	2
1	4667	1077.0005	1
1	4674	1078.5005	2
1	4675	1079.0005	1
1	4680	1080.0005	2
1	4682	1081.0005	1
1	4689	1082.5005	2
1	4690	1083.0005	1
1	4699	1085.0005	0
1	4706	1085.0005	1
1	4712	1087.0005	0
1	4754	1101.5005	1
1	4755	1103.0005	0
1	4812	1113.0005	1
1	4813	1114.0005	0
1	4865	1128.5005	1
1	4867	1129.0005	0
1	4962	1157.0005	1
1	4963	1158.5005	0
1	4965	1158.5005	1
1	4966	1160.5005	0
1	5180	1212.5005	1
1	5186	1214.5005	0
1	5188	1214.5005	1
1	5191	1216.5005	0
1	5199	1217.0005	1
1	5203	1218.5005	0
1	5208	1218.5005	1
1	5216	1219.5005	2
1	5217	1220.5005	1
1	5230	1222.5005	0
1	5248	1225.0005	1
1	5249	1226.5005	0
1	5312	1241.0005	1
1	5315	1242.5005	0
1	5320	1242.5005	1
1	5323	1244.5005	0
1	5340	1246.0005	1
1	5341	1246.5005	0
1	5405	1258.5005	1
1	5406	1259.0005	0
1	5408	1259.0005	1
1	5410	1261.0005	0
1	5425	1261.0005	1
1	5430	1262.5005	2
1	5431	1263.0005	1
1	5436	1265.0005	0
1	5446	1265.0005	1
1	5456	1267.0005	0
1	5462	1267.0005	1
1	5472	1269.0005	0
1	5480	1269.0005	1
1	5485	1271.0005	0
1	5602	1289.5005	1
1	5605	1291.0005	0
1	5607	1291.0005	1
1	5610	1293.0005	0
1	5614	1293.0005	1
1	5618	1293.0005	2
1	5621	1295.0005	1
1	5629	1296.5005	2
1	5633	1297.0005	1
1	5638	1299.0005	0
1	5640	1299.0005	1
1	5642	1301.0005	0
1	5645	1301.0005	1
1	5647	1303.0005	0
1	5649	1303.0005	1
1	5651	1305.0005	0
1	5800	1349.0005	1
1	5801	1351.0005	0
1	5821	1356.0005	1
1	5823	1357.0005	0
1	5833	1357.0005	1
1	5843	1359.0005	0
1	5845	1359.0005	1
1	5848	1360.0005	2
1	5850	1361.0005	1
1	5857	1361.0005	2
1	5858	1363.0005	1
1	5864	1365.0005	0
1	5867	1365.0005	1
1	5877	1367.0005	0
1	5904	1371.0005	1
1	5905	1372.0005	0
1	5910	1372.0005	1
1	5924	1373.0005	2
1	5925	1374.0005	1
1	5932	1376.0005	0
1	5947	1377.0005	1
1	5949	1378.0005	0
1	6130	1421.0005	1
1	6134	1423.0005	0
1	6190	1438.0005	1
1	6191	1439.0005	0
1	6242	1445.0005	1
1	6246	1446.0005	0
1	6269	1449.0005	1
1	6270	1450.0005	0
1	6315	1469.0005	1
1	6316	1471.0005	0
2	0	0	0
2	240	24.0005	1
2	243	25.5005	0
2	661	128.5005	1
2	662	129.5005	0
2	664	129.5005	1
2	668	131.0005	0
2	743	140.5005	1
2	746	141.5005	0
2	757	142.5005	1
2	760	143.0005	0
2	810	149.0005	1
2	812	150.0005	0
2	1163	214.5005	1
2	1164	215.0005	0
2	1206	226.5005	1
2	1207	227.0005	0
2	1212	227.5005	1
2	1213	228.5005	0
2	1522	295.5005	1
2	1524	296.5005	0
2	2164	465.5005	1
2	2166	466.0005	0
2	2188	469.5005	1
2	2189	470.0005	0
2	2238	477.5005	1
2	2239	478.5005	0
2	2361	511.5005	1
2	2362	512.0005	0
2	2387	518.0005	1
2	2388	519.0005	0
2	2552	573.5005	1
2	2553	575.0005	0
2	2731	629.5005	1
2	2732	630.0005	0
2	2985	679.5005	1
2	2986	680.5005	0
2	2988	680.5005	1
2	2995	682.0005	0
2	3296	766.0005	1
2	3305	767.0005	0
2	3547	833.0005	1
2	3554	834.0005	0
2	3842	885.5005	1
2	3843	886.0005	0
2	3845	886.0005	1
2	3850	887.5005	0
2	3858	887.5005	1
2	3872	889.0005	0
2	3879	889.5005	1
2	3880	890.5005	0
2	3891	891.5005	1
2	3892	892.0005	0
2	3912	895.5005	1
2	3915	896.5005	0
2	4040	919.5005	1
2	4041	920.0005	0
2	4112	932.0005	1
2	4113	933.0005	0
2	4481	1037.5005	1
2	4482	1038.0005	0
2	4493	1038.0005	1
2	4496	1039.5005	0
2	4656	1073.0005	1
2	4657	1074.0005	0
2	4824	1117.0005	1
2	4825	1117.5005	0
2	4847	1123.0005	1
2	4848	1124.5005	0
2	4850	1124.5005	1
2	4854	1126.0005	0
2	5152	1209.0005	1
2	5153	1209.5005	0
2	5523	1274.0005	1
2	5524	1274.5005	0
2	5564	1281.0005	1
2	5565	1282.5005	0
2	5587	1287.0005	1
2	5588	1288.0005	0
2	5675	1309.0005	1
2	5676	1310.5005	0
3	0	0	0
3	3636	853.0005	1
3	3638	853.5005	0
3	3642	853.5005	1
3	3651	854.5005	0
3	4026	917.0005	1
3	4027	917.5005	0
3	5898	1369.0005	1
3	5899	1370.0005	0
4	0	0	0
4	49	1.0005	1
4	50	1.0005	2
4	51	1.0005	3
4	52	1.0005	4
4	53	1.0005	5
4	57	1.0005	4
4	59	1.0005	3
4	65	1.0005	2
4	68	1.0005	1
4	81	2.0005	2
4	82	2.0005	3
4	83	2.0005	4
4	84	2.0005	5
4	85	2.0005	6
4	86	2.0005	7
4	87	2.0005	8
4	88	2.0005	9
4	101	3.0005	10
4	102	3.0005	11
4	103	3.0005	12
4	104	3.0005	13
4	105	3.0005	14
4	106	3.0005	15
4	107	3.0005	16
4	114	4.0005	17
4	115	4.0005	18
4	116	4.0005	19
4	118	4.0005	20
4	120	4.0005	19
4	121	4.0005	18
4	129	5.0005	19
4	132	5.5005	18
4	137	5.5005	19
4	140	6.0005	20
4	142	6.0005	19
4	148	7.0005	18
4	157	8.0005	17
4	162	9.0005	18
4	167	11.0005	19
4	172	12.0005	20
4	193	17.0005	19
4	196	17.0005	18
4	203	18.0005	19
4	209	20.0005	20
4	211	20.0005	19
4	212	20.0005	18
4	220	21.0005	19
4	223	22.0005	20
4	228	23.5005	19
4	236	24.0005	18
4	242	24.5005	19
4	249	26.0005	20
4	262	28.0005	19
4	275	32.0005	20
4	279	32.5005	19
4	287	35.5005	20
4	292	36.0005	19
4	299	37.0005	20
4	307	40.0005	19
4	312	40.0005	20
4	315	41.0005	19
4	323	43.0005	20
4	368	69.0005	19
4	384	72.0005	20
4	388	74.0005	19
4	393	75.0005	20
4	402	77.5005	19
4	407	78.5005	20
4	410	79.5005	19
4	416	80.0005	18
4	423	81.0005	19
4	429	83.5005	20
4	434	84.0005	19
4	435	84.0005	18
4	443	84.0005	19
4	451	88.0005	20
4	469	92.0005	19
4	472	92.0005	18
4	476	92.0005	19
4	486	94.0005	18
4	491	95.0005	19
4	496	96.0005	20
4	505	98.5005	19
4	510	99.5005	20
4	513	100.0005	19
4	518	101.0005	20
4	521	101.5005	19
4	527	102.5005	18
4	530	102.5005	17
4	535	103.5005	18
4	544	105.5005	19
4	545	105.5005	20
4	556	112.0005	19
4	566	113.5005	18
4	569	113.5005	17
4	572	113.5005	16
4	577	114.5005	17
4	579	115.0005	18
4	582	115.5005	19
4	589	116.5005	20
4	595	119.5005	19
4	600	119.5005	20
4	606	121.0005	19
4	614	122.0005	20
4	619	122.5005	19
4	626	124.0005	18
4	629	124.0005	17
4	642	126.5005	18
4	646	126.5005	17
4	652	127.0005	18
4	653	127.0005	19
4	655	127.5005	20
4	670	131.0005	19
4	677	132.0005	20
4	684	132.5005	19
4	689	133.5005	20
4	698	135.0005	19
4	701	135.0005	18
4	710	136.0005	19
4	711	136.0005	18
4	721	137.0005	19
4	722	137.0005	20
4	737	140.0005	19
4	745	141.0005	20
4	754	142.5005	19
4	759	142.5005	20
4	771	144.5005	19
4	774	144.5005	18
4	778	144.5005	19
4	779	144.5005	18
4	790	146.5005	19
4	791	146.5005	20
4	795	148.0005	19
4	798	148.0005	18
4	807	149.0005	17
4	813	150.0005	18
4	818	150.5005	17
4	823	151.0005	18
4	830	152.0005	19
4	834	152.5005	18
4	837	152.5005	17
4	842	153.5005	18
4	847	154.5005	19
4	848	154.5005	20
4	849	154.5005	19
4	864	157.5005	20
4	869	158.5005	19
4	874	158.5005	20
4	883	161.5005	19
4	890	162.5005	20
4	891	162.5005	19
4	896	162.5005	20
4	901	164.0005	19
4	907	164.0005	20
4	910	164.5005	19
4	913	164.5005	18
4	918	165.5005	19
4	927	168.0005	18
4	933	168.5005	19
4	937	170.0005	20
4	940	170.5005	19
4	952	174.0005	18
4	958	174.5005	19
4	965	176.0005	18
4	966	176.0005	17
4	975	176.5005	16
4	980	177.0005	17
4	988	178.0005	18
4	993	179.0005	19
4	995	179.5005	20
4	998	180.5005	19
4	1001	180.5005	18
4	1008	181.5005	19
4	1012	182.0005	18
4	1021	183.5005	19
4	1025	184.0005	20
4	1046	188.0005	19
4	1058	189.5005	18
4	1063	190.0005	19
4	1069	190.5005	20
4	1074	192.5005	19
4	1086	196.5005	20
4	1100	202.5005	19
4	1105	203.5005	20
4	1108	204.5005	19
4	1111	204.5005	18
4	1114	204.5005	17
4	1118	204.5005	18
4	1119	204.5005	17
4	1126	205.5005	18
4	1127	205.5005	17
4	1136	206.5005	18
4	1141	208.5005	19
4	1147	209.5005	20
4	1166	215.0005	19
4	1172	216.5005	18
4	1177	216.5005	19
4	1183	219.0005	20
4	1227	231.5005	19
4	1239	235.5005	20
4	1247	237.5005	19
4	1250	237.5005	18
4	1255	238.5005	19
4	1258	239.0005	18
4	1266	240.5005	19
4	1274	243.0005	20
4	1289	247.5005	19
4	1294	247.5005	20
4	1309	252.0005	19
4	1312	252.0005	18
4	1317	252.0005	19
4	1326	255.0005	20
4	1340	258.0005	19
4	1351	262.0005	20
4	1354	263.5005	19
4	1369	267.5005	20
4	1374	269.0005	19
4	1380	269.5005	18
4	1383	269.5005	17
4	1387	269.5005	18
4	1390	270.5005	19
4	1402	273.0005	20
4	1416	277.5005	19
4	1422	279.0005	18
4	1427	280.5005	19
4	1435	282.0005	20
4	1440	283.0005	19
4	1447	284.0005	20
4	1449	284.0005	19
4	1452	284.0005	18
4	1456	284.0005	19
4	1459	284.0005	20
4	1462	285.0005	19
4	1472	287.0005	20
4	1482	289.5005	19
4	1490	291.5005	20
4	1504	294.5005	19
4	1508	294.5005	18
4	1511	294.5005	17
4	1516	294.5005	18
4	1525	296.5005	19
4	1530	297.0005	18
4	1538	297.5005	19
4	1540	297.5005	18
4	1544	297.5005	17
4	1558	300.5005	18
4	1562	301.0005	19
4	1570	301.5005	20
4	1577	305.0005	19
4	1588	308.0005	20
4	1591	308.5005	19
4	1594	308.5005	18
4	1604	309.5005	19
4	1605	309.5005	18
4	1610	310.5005	19
4	1615	311.5005	20
4	1618	313.0005	19
4	1624	313.5005	18
4	1627	313.5005	17
4	1632	313.5005	18
4	1636	315.0005	19
4	1644	317.5005	20
4	1660	329.5005	19
4	1671	333.5005	20
4	1674	333.5005	19
4	1677	333.5005	18
4	1683	334.5005	19
4	1689	335.5005	20
4	1713	341.5005	19
4	1714	341.5005	18
4	1722	341.5005	19
4	1725	343.0005	18
4	1732	343.5005	19
4	1738	346.0005	20
4	1741	349.5005	19
4	1746	351.5005	20
4	1749	353.5005	19
4	1752	353.5005	18
4	1760	355.5005	19
4	1765	356.5005	20
4	1777	360.0005	19
4	1782	361.0005	20
4	1791	362.5005	19
4	1794	362.5005	18
4	1805	364.5005	19
4	1814	366.5005	20
4	1822	373.5005	19
4	1825	373.5005	18
4	1830	373.5005	19
4	1833	375.0005	18
4	1838	375.0005	19
4	1845	377.5005	20
4	1854	381.5005	19
4	1855	381.5005	18
4	1863	381.5005	19
4	1867	385.5005	20
4	1886	393.5005	19
4	1894	395.0005	18
4	1900	396.0005	19
4	1902	396.5005	20
4	1905	397.0005	19
4	1911	397.5005	18
4	1919	399.5005	19
4	1924	401.0005	20
4	1927	401.5005	19
4	1933	403.5005	18
4	1936	403.5005	17
4	1941	404.5005	18
4	1946	405.5005	19
4	1947	405.5005	20
4	1948	405.5005	19
4	1953	405.5005	20
4	1974	417.5005	19
4	1977	417.5005	18
4	1982	417.5005	19
4	1992	421.5005	20
4	2014	429.0005	19
4	2031	432.0005	20
4	2040	434.5005	19
4	2045	434.5005	20
4	2048	435.0005	19
4	2051	435.0005	18
4	2056	436.0005	19
4	2069	439.0005	20
4	2076	441.0005	19
4	2090	444.0005	20
4	2096	445.5005	19
4	2101	446.5005	20
4	2107	449.0005	19
4	2115	450.0005	20
4	2118	450.5005	19
4	2129	454.5005	20
4	2138	459.0005	19
4	2150	463.0005	20
4	2152	463.0005	19
4	2161	465.5005	18
4	2167	466.0005	19
4	2172	467.5005	18
4	2177	467.5005	19
4	2180	468.5005	20
4	2185	469.5005	19
4	2194	471.5005	18
4	2197	471.5005	17
4	2202	471.5005	18
4	2208	472.5005	19
4	2209	472.5005	20
4	2215	473.5005	19
4	2226	476.5005	20
4	2231	477.0005	19
4	2244	479.0005	20
4	2246	479.0005	19
4	2252	480.0005	18
4	2255	480.0005	17
4	2266	481.5005	16
4	2267	481.5005	15
4	2275	482.0005	16
4	2277	482.5005	17
4	2279	483.0005	18
4	2281	484.0005	19
4	2283	484.5005	20
4	2289	487.0005	19
4	2297	490.0005	20
4	2309	499.5005	19