version 2
run General-12-20141107-15:53:00-14960
attr configname General
attr datetime 20141107-15:53:00
attr experiment General
attr inifile routerTerminal.ini
attr iterationvars ""
attr iterationvars2 $repetition=12
attr measurement ""
attr network Network1
attr processid 14960
attr repetition 12
attr replication #12
attr resultdir results
attr runnumber 12
attr seedset 12

vector 0  Network1.queue1  queueLength:vector  ETV
attr interpolationmode  sample-hold
attr title  "queue length, vector"
vector 1  Network1.queue2  queueLength:vector  ETV
attr interpolationmode  sample-hold
attr title  "queue length, vector"
vector 2  Network1.queue3  queueLength:vector  ETV
attr interpolationmode  sample-hold
attr title  "queue length, vector"
vector 3  Network1.queue4  queueLength:vector  ETV
attr interpolationmode  sample-hold
attr title  "queue length, vector"
vector 4  Network1.allocate  queueLength:vector  ETV
attr interpolationmode  sample-hold
attr title  "queue length, vector"
0	0	0	0
0	146	14.0005	1
0	149	16.0005	0
0	195	22.0005	1
0	196	24.0005	0
0	212	25.5005	1
0	218	28.0005	0
0	232	30.0005	1
0	241	30.5005	2
0	246	32.0005	1
0	265	34.0005	2
0	271	36.0005	1
0	290	36.0005	2
0	299	38.0005	3
0	300	40.0005	2
0	306	40.0005	3
0	315	41.5005	4
0	316	44.0005	3
0	332	47.0005	4
0	333	48.0005	3
0	341	52.0005	2
0	346	52.0005	3
0	361	56.0005	2
0	381	58.5005	3
0	387	59.0005	4
0	388	60.0005	3
0	399	64.0005	2
0	403	64.0005	3
0	404	64.0005	4
0	407	68.0005	3
0	415	69.0005	4
0	418	72.0005	3
0	430	76.0005	2
0	444	80.0005	1
0	466	82.0005	2
0	473	84.0005	1
0	477	84.0005	2
0	503	88.0005	1
0	519	91.5005	2
0	520	92.0005	1
0	537	96.0005	0
0	542	96.0005	1
0	552	99.5005	2
0	553	100.0005	1
0	564	103.5005	2
0	565	104.0005	1
0	570	105.0005	2
0	578	107.5005	3
0	579	108.0005	2
0	584	109.5005	3
0	587	111.5005	4
0	588	112.0005	3
0	599	115.0005	4
0	600	116.0005	3
0	624	120.0005	2
0	631	120.0005	3
0	646	124.0005	2
0	658	125.0005	3
0	665	128.0005	2
0	669	128.0005	3
0	676	132.0005	2
0	693	136.0005	1
0	697	136.0005	2
0	698	136.0005	3
0	701	138.0005	4
0	702	140.0005	3
0	704	140.0005	4
0	705	144.0005	3
0	716	147.0005	4
0	719	148.0005	3
0	725	152.0005	2
0	736	155.0005	3
0	737	156.0005	2
0	741	156.0005	3
0	752	160.0005	2
0	759	160.5005	3
0	763	164.0005	2
0	793	168.0005	1
0	813	169.0005	2
0	841	172.0005	1
0	847	172.0005	2
0	865	175.0005	3
0	866	176.0005	2
0	870	176.0005	3
0	883	180.0005	2
0	885	180.0005	3
0	896	183.0005	4
0	897	184.0005	3
0	901	184.0005	4
0	902	188.0005	3
0	912	190.0005	4
0	913	192.0005	3
0	922	196.0005	2
0	928	196.0005	3
0	935	199.0005	4
0	936	200.0005	3
0	942	204.0005	2
0	962	208.0005	1
0	1002	211.5005	2
0	1003	212.0005	1
0	1015	213.5005	2
0	1023	215.5005	3
0	1024	216.0005	2
0	1037	219.0005	3
0	1041	220.0005	2
0	1065	221.5005	3
0	1075	223.5005	4
0	1076	224.0005	3
0	1078	224.0005	4
0	1081	228.0005	3
0	1090	232.0005	2
0	1098	233.5005	3
0	1101	234.5005	4
0	1102	236.0005	3
0	1104	236.0005	4
0	1105	240.0005	3
0	1119	244.0005	2
0	1133	245.5005	3
0	1141	248.0005	2
0	1146	248.5005	3
0	1150	252.0005	2
0	1170	256.0005	1
0	1175	256.0005	2
0	1191	258.0005	3
0	1196	260.0005	2
0	1229	264.0005	1
0	1233	264.0005	2
0	1244	265.5005	3
0	1248	268.0005	2
0	1262	271.5005	3
0	1263	272.0005	2
0	1274	273.0005	3
0	1278	276.0005	2
0	1286	276.0005	3
0	1287	276.0005	4
0	1288	280.0005	3
0	1302	284.0005	2
0	1311	288.0005	1
0	1316	288.0005	2
0	1323	292.0005	1
0	1345	294.0005	2
0	1346	296.0005	1
0	1388	300.0005	0
0	1406	303.0005	1
0	1407	304.0005	0
0	1418	305.0005	1
0	1424	308.0005	0
0	1443	309.0005	1
0	1451	311.0005	2
0	1452	312.0005	1
0	1459	312.0005	2
0	1465	313.5005	3
0	1471	316.0005	2
0	1476	316.0005	3
0	1488	320.0005	2
0	1505	324.0005	1
0	1513	324.5005	2
0	1521	325.5005	3
0	1526	326.5005	4
0	1527	328.0005	3
0	1532	328.0005	4
0	1533	332.0005	3
0	1537	332.0005	4
0	1538	336.0005	3
0	1557	340.0005	2
0	1576	341.0005	3
0	1587	344.0005	2
0	1592	345.0005	3
0	1598	347.5005	4
0	1599	348.0005	3
0	1601	348.0005	4
0	1602	352.0005	3
0	1619	353.5005	4
0	1622	356.0005	3
0	1633	357.5005	4
0	1634	360.0005	3
0	1647	363.5005	4
0	1648	364.0005	3
0	1654	368.0005	2
0	1676	369.5005	3
0	1687	372.0005	2
0	1716	374.0005	3
0	1719	376.0005	2
0	1748	380.0005	1
0	1764	383.5005	2
0	1765	384.0005	1
0	1767	384.0005	2
0	1770	385.5005	3
0	1774	388.0005	2
0	1782	389.5005	3
0	1788	391.5005	4
0	1789	392.0005	3
0	1821	396.0005	2
0	1829	396.5005	3
0	1844	400.0005	2
0	1849	401.0005	3
0	1852	401.5005	4
0	1853	404.0005	3
0	1862	408.0005	2
0	1864	408.0005	3
0	1867	408.5005	4
0	1868	412.0005	3
0	1881	414.0005	4
0	1882	416.0005	3
0	1890	417.0005	4
0	1895	420.0005	3
0	1905	422.0005	4
0	1906	424.0005	3
0	1930	427.5005	4
0	1931	428.0005	3
0	1942	428.0005	4
0	1953	432.0005	3
0	1961	434.0005	4
0	1964	436.0005	3
0	1970	440.0005	2
0	1987	444.0005	1
0	1992	444.0005	2
0	1995	444.0005	3
0	2001	448.0005	2
0	2017	449.5005	3
0	2024	452.0005	2
0	2043	453.5005	3
0	2053	455.0005	4
0	2056	456.0005	3
0	2067	460.0005	2
0	2095	464.0005	1
0	2100	464.0005	2
0	2126	468.0005	1
0	2154	472.0005	0
0	2159	472.0005	1
0	2175	476.0005	0
0	2179	476.0005	1
0	2202	480.0005	0
0	2256	491.0005	1
0	2265	493.5005	2
0	2267	494.0005	1
0	2276	495.5005	2
0	2283	498.0005	1
0	2285	498.0005	2
0	2305	502.0005	1
0	2319	503.0005	2
0	2322	503.5005	3
0	2326	506.0005	2
0	2328	506.0005	3
0	2334	508.5005	4
0	2335	510.0005	3
0	2340	510.0005	4
0	2343	514.0005	3
0	2348	514.0005	4
0	2351	518.0005	3
0	2365	522.0005	2
0	2394	526.0005	1
0	2399	527.0005	2
0	2411	529.0005	3
0	2417	530.0005	2
0	2427	530.0005	3
0	2437	533.5005	4
0	2438	534.0005	3
0	2450	538.0005	2
0	2460	539.5005	3
0	2466	542.0005	2
0	2468	542.0005	3
0	2507	545.0005	4
0	2510	546.0005	3
0	2527	546.0005	4
0	2536	550.0005	3
0	2538	550.0005	4
0	2539	554.0005	3
0	2548	558.0005	2
0	2564	562.0005	1
0	2568	562.0005	2
0	2573	566.0005	1
0	2595	570.0005	0
0	2742	588.0005	1
0	2758	590.0005	0
0	2827	601.0005	1
0	2853	604.5005	0
0	2884	607.5005	1
0	2890	608.5005	0
0	2892	608.5005	1
0	2904	610.0005	2
0	2909	611.5005	3
0	2913	612.5005	2
0	2927	614.5005	3
0	2936	616.0005	4
0	2937	616.5005	3
0	2955	620.5005	2
0	2963	621.5005	3
0	2971	623.5005	4
0	2972	624.5005	3
0	2989	628.5005	2
0	3000	629.0005	3
0	3016	632.5005	2
0	3046	636.5005	1
0	3086	640.0005	2
0	3087	640.5005	1
0	3108	643.0005	2
0	3115	644.5005	1
0	3132	647.0005	2
0	3135	648.5005	1
0	3146	649.0005	2
0	3153	650.0005	3
0	3164	652.5005	2
0	3174	653.5005	3
0	3180	655.0005	4
0	3181	656.5005	3
0	3183	656.5005	4
0	3186	660.5005	3
0	3210	664.5005	2
0	3237	668.0005	3
0	3240	668.5005	2
0	3259	672.5005	1
0	3263	672.5005	2
0	3272	674.0005	3
0	3281	676.5005	2
0	3297	680.5005	1
0	3308	682.0005	2
0	3313	684.0005	3
0	3314	684.5005	2
0	3319	684.5005	3
0	3331	688.5005	2
0	3351	692.5005	1
0	3366	693.5005	2
0	3392	696.5005	1
0	3411	698.5005	2
0	3416	700.5005	1
0	3420	700.5005	2
0	3440	704.5005	1
0	3450	704.5005	2
0	3459	708.5005	1
0	3471	712.5005	0
0	3475	712.5005	1
0	3479	713.0005	2
0	3485	714.5005	3
0	3488	715.0005	4
0	3489	716.5005	3
0	3498	720.5005	2
0	3502	720.5005	3
0	3515	724.5005	2
0	3520	724.5005	3
0	3533	726.5005	4
0	3536	728.5005	3
0	3541	729.5005	4
0	3542	732.5005	3
0	3544	732.5005	4
0	3545	736.5005	3
0	3553	740.0005	4
0	3554	740.5005	3
0	3556	740.5005	4
0	3557	744.5005	3
0	3567	746.5005	4
0	3568	748.5005	3
0	3585	752.5005	2
0	3610	756.5005	1
0	3624	757.5005	2
0	3630	758.5005	3
0	3634	760.5005	2
0	3654	764.5005	1
0	3664	765.0005	2
0	3670	768.5005	1
0	3672	768.5005	2
0	3675	769.0005	3
0	3682	772.5005	2
0	3684	772.5005	3
0	3697	776.5005	2
0	3707	777.5005	3
0	3719	780.5005	2
0	3736	784.5005	1
0	3743	784.5005	2
0	3756	787.5005	3
0	3757	788.5005	2
0	3772	788.5005	3
0	3783	792.5005	2
0	3797	794.5005	3
0	3801	796.5005	2
0	3813	799.0005	3
0	3820	800.5005	2
0	3836	804.5005	1
0	3850	808.5005	0
0	3867	811.5005	1
0	3868	812.5005	0
0	3873	812.5005	1
0	3884	813.5005	2
0	3898	816.5005	1
0	3909	818.0005	2
0	3912	819.0005	3
0	3915	820.5005	2
0	3945	823.5005	3
0	3946	824.5005	2
0	3985	828.5005	1
0	3989	828.5005	2
0	3997	829.5005	3
0	4001	832.5005	2
0	4015	836.5005	1
0	4020	837.0005	2
0	4029	838.5005	3
0	4040	839.5005	4
0	4041	840.5005	3
0	4053	843.5005	4
0	4054	844.5005	3
0	4063	848.5005	2
0	4071	850.0005	3
0	4078	852.5005	2
0	4110	856.5005	1
0	4120	856.5005	2
0	4145	860.5005	1
0	4162	861.5005	2
0	4165	862.0005	3
0	4173	864.5005	2
0	4178	864.5005	3
0	4189	868.0005	4
0	4190	868.5005	3
0	4198	872.0005	4
0	4199	872.5005	3
0	4210	875.0005	4
0	4211	876.5005	3
0	4218	878.5005	4
0	4219	880.5005	3
0	4228	884.5005	2
0	4238	885.5005	3
0	4247	887.5005	4
0	4250	888.5005	3
0	4255	888.5005	4
0	4258	892.5005	3
0	4260	892.5005	4
0	4261	896.5005	3
0	4269	900.0005	4
0	4270	900.5005	3
0	4280	902.5005	4
0	4281	904.5005	3
0	4301	906.5005	4
0	4302	908.5005	3
0	4311	912.5005	2
0	4313	912.5005	3
0	4319	914.0005	4
0	4320	916.5005	3
0	4337	920.5005	2
0	4339	920.5005	3
0	4351	924.5005	2
0	4353	924.5005	3
0	4356	925.0005	4
0	4359	928.5005	3
0	4364	928.5005	4
0	4367	932.5005	3
0	4378	936.5005	2
0	4383	936.5005	3
0	4396	940.5005	2
0	4404	942.0005	3
0	4415	944.5005	2
0	4422	944.5005	3
0	4425	946.5005	4
0	4426	948.5005	3
0	4437	951.5005	4
0	4438	952.5005	3
0	4454	956.5005	2
0	4456	956.5005	3
0	4466	960.5005	2
0	4497	964.5005	1
0	4501	964.5005	2
0	4519	968.5005	1
0	4521	968.5005	2
0	4526	969.0005	3
0	4543	972.5005	2
0	4557	974.5005	3
0	4560	976.5005	2
0	4588	980.0005	3
0	4591	980.5005	2
0	4599	980.5005	3
0	4610	981.5005	4
0	4613	984.5005	3
0	4623	987.0005	4
0	4624	988.5005	3
0	4634	988.5005	4
0	4637	992.5005	3
0	4656	996.5005	2
0	4658	996.5005	3
0	4676	999.0005	4
0	4679	1000.5005	3
0	4700	1004.5005	2
0	4722	1008.5005	1
0	4735	1012.5005	0
0	4792	1023.0005	1
0	4793	1025.0005	0
0	4949	1047.0005	1
0	4958	1049.5005	0
0	4979	1052.0005	1
0	4985	1053.5005	0
0	4987	1053.5005	1
0	4996	1057.5005	0
0	4998	1057.5005	1
0	5001	1058.5005	2
0	5004	1059.0005	3
0	5008	1061.5005	2
0	5019	1064.0005	3
0	5023	1065.5005	2
0	5035	1066.5005	3
0	5047	1069.5005	2
0	5055	1071.5005	3
0	5056	1073.5005	2
0	5061	1073.5005	3
0	5070	1076.5005	4
0	5071	1077.5005	3
0	5082	1081.5005	2
0	5084	1081.5005	3
0	5091	1085.5005	2
0	5111	1089.5005	1
0	5115	1089.5005	2
0	5116	1089.5005	3
0	5131	1093.5005	2
0	5142	1096.5005	3
0	5145	1097.5005	2
0	5160	1101.5005	1
0	5166	1101.5005	2
0	5167	1101.5005	3
0	5178	1105.5005	2
0	5185	1105.5005	3
0	5200	1109.0005	4
0	5201	1109.5005	3
0	5212	1111.5005	4
0	5213	1113.5005	3
0	5235	1117.5005	2
0	5252	1121.5005	1
0	5274	1125.5005	0
0	5290	1129.0005	1
0	5291	1129.5005	0
0	5296	1129.5005	1
0	5299	1131.0005	2
0	5305	1133.5005	1
0	5326	1137.0005	2
0	5327	1137.5005	1
0	5347	1141.5005	0
0	5349	1141.5005	1
0	5370	1145.5005	0
0	5391	1147.0005	1
0	5394	1147.0005	2
0	5405	1149.5005	1
0	5412	1151.0005	2
0	5417	1153.0005	3
0	5418	1153.5005	2
0	5436	1157.5005	1
0	5440	1157.5005	2
0	5458	1161.5005	1
0	5463	1163.0005	2
0	5467	1165.5005	1
0	5469	1165.5005	2
0	5478	1167.0005	3
0	5484	1168.5005	4
0	5487	1169.5005	3
0	5498	1171.0005	4
0	5501	1173.5005	3
0	5508	1173.5005	4
0	5511	1177.5005	3
0	5536	1181.5005	2
0	5545	1182.5005	3
0	5555	1185.5005	2
0	5568	1185.5005	3
0	5586	1189.5005	2
0	5600	1191.5005	3
0	5609	1193.5005	2
0	5613	1193.5005	3
0	5629	1196.0005	4
0	5630	1197.5005	3
0	5639	1201.5005	2
0	5664	1205.5005	1
0	5678	1207.5005	2
0	5689	1209.5005	1
0	5694	1209.5005	2
0	5705	1211.0005	3
0	5709	1213.5005	2
0	5724	1215.5005	3
0	5725	1217.5005	2
0	5745	1221.5005	1
0	5771	1225.5005	0
0	5775	1225.5005	1
0	5799	1226.5005	2
0	5808	1227.5005	3
0	5817	1229.5005	2
0	5841	1233.5005	1
0	5865	1237.5005	0
0	5871	1237.5005	1
0	5875	1237.5005	2
0	5884	1241.5005	1
0	5897	1242.5005	2
0	5904	1245.5005	1
0	5909	1245.5005	2
0	5921	1248.0005	3
0	5927	1249.5005	2
0	5938	1251.0005	3
0	5947	1253.5005	2
0	5960	1256.0005	3
0	5964	1257.5005	2
0	5972	1258.0005	3
0	5978	1260.5005	4
0	5981	1261.5005	3
0	5990	1265.5005	2
0	5998	1266.5005	3
0	6003	1268.5005	4
0	6004	1269.5005	3
0	6009	1271.0005	4
0	6010	1273.5005	3
0	6015	1274.5005	4
0	6016	1277.5005	3
0	6029	1281.0005	4
0	6030	1281.5005	3
0	6054	1284.5005	4
0	6055	1285.5005	3
0	6062	1285.5005	4
0	6067	1289.5005	3
0	6070	1293.5005	2
0	6075	1295.5005	3
0	6076	1297.5005	2
0	6079	1301.5005	1
0	6088	1305.5005	0
0	6093	1305.5005	1
0	6100	1309.5005	0
1	0	0	0
1	41	0.0005	1
1	60	1.0005	2
1	61	1.0005	3
1	69	2.0005	2
1	81	2.0005	3
1	93	4.0005	2
1	103	6.0005	1
1	113	6.5005	2
1	120	7.5005	3
1	124	7.5005	4
1	125	8.0005	3
1	130	8.0005	4
1	131	10.0005	3
1	133	10.0005	4
1	138	12.0005	3
1	141	14.0005	2
1	150	16.0005	1
1	173	17.0005	2
1	176	17.5005	3
1	177	18.0005	2
1	179	18.0005	3
1	183	20.0005	2
1	192	21.5005	3
1	193	22.0005	2
1	197	24.0005	1
1	201	24.0005	2
1	213	26.0005	1
1	215	26.0005	2
1	219	28.0005	1
1	223	28.0005	2
1	227	30.0005	1
1	247	32.0005	0
1	254	32.0005	1
1	263	34.0005	0
1	270	34.5005	1
1	272	36.0005	0
1	281	36.0005	1
1	293	38.0005	0
1	455	80.5005	1
1	456	81.0005	0
1	497	86.5005	1
1	500	87.5005	0
1	502	87.5005	1
1	507	89.5005	0
1	512	89.5005	1
1	513	89.5005	2
1	514	91.5005	1
1	522	92.0005	2
1	523	93.5005	1
1	531	95.0005	2
1	533	95.5005	1
1	536	95.5005	2
1	545	97.5005	1
1	547	97.5005	2
1	550	99.5005	1
1	555	100.0005	2
1	556	101.5005	1
1	558	101.5005	2
1	559	103.5005	1
1	571	105.5005	0
1	573	105.5005	1
1	576	107.5005	0
1	581	108.0005	1
1	582	109.5005	0
1	687	133.5005	1
1	688	134.0005	0
1	690	134.0005	1
1	694	136.0005	0
1	730	152.0005	1
1	731	154.0005	0
1	787	165.5005	1
1	790	167.0005	0
1	792	167.0005	1
1	799	169.0005	0
1	840	171.5005	1
1	852	173.0005	0
1	958	207.0005	1
1	959	207.5005	0
1	986	208.5005	1
1	987	209.5005	0
1	991	209.5005	1
1	992	209.5005	2
1	997	211.5005	1
1	1008	212.0005	2
1	1013	213.5005	1
1	1018	215.5005	0
1	1026	216.0005	1
1	1029	217.5005	0
1	1234	264.0005	1
1	1236	264.5005	0
1	1250	268.0005	1
1	1251	268.5005	0
1	1307	284.5005	1
1	1308	286.0005	0
1	1310	286.0005	1
1	1312	288.0005	0
1	1319	288.0005	1
1	1320	290.0005	0
1	1322	290.0005	1
1	1325	292.0005	0
1	1336	293.0005	1
1	1339	293.5005	2
1	1340	294.0005	1
1	1348	296.0005	0
1	1365	296.0005	1
1	1378	297.5005	2
1	1379	298.0005	1
1	1385	298.0005	2
1	1390	300.0005	1
1	1394	300.0005	2
1	1398	301.0005	3
1	1401	302.0005	2
1	1408	304.0005	1
1	1411	304.0005	2
1	1421	306.0005	1
1	1423	306.0005	2
1	1425	308.0005	1
1	1438	308.0005	2
1	1444	310.0005	1
1	1454	312.0005	0
1	1510	324.0005	1
1	1511	324.5005	0
1	1698	372.0005	1
1	1701	374.0005	0
1	1744	379.0005	1
1	1745	379.5005	0
1	1747	379.5005	1
1	1751	381.5005	0
1	1755	381.5005	1
1	1759	381.5005	2
1	1762	383.5005	1
1	1768	385.5005	0
1	1776	388.0005	1
1	1777	389.5005	0
1	1981	441.5005	1
1	1982	442.0005	0
1	1984	442.0005	1
1	1988	444.0005	0
1	2072	461.0005	1
1	2073	461.5005	0
1	2105	465.0005	1
1	2106	465.5005	0
1	2108	465.5005	1
1	2109	467.5005	0
1	2123	467.5005	1
1	2134	468.0005	2
1	2137	469.5005	1
1	2150	471.5005	0
1	2153	471.5005	1
1	2162	472.5005	2
1	2163	473.5005	1
1	2168	475.0005	2
1	2169	475.5005	1
1	2174	475.5005	2
1	2180	477.5005	1
1	2187	479.0005	2
1	2188	479.5005	1
1	2207	480.0005	2
1	2210	480.5005	3
1	2211	481.5005	2
1	2215	481.5005	3
1	2219	483.5005	2
1	2225	483.5005	3
1	2228	484.0005	4
1	2229	485.5005	3
1	2231	485.5005	4
1	2233	487.5005	3
1	2240	489.5005	2
1	2257	491.5005	1
1	2262	493.0005	2
1	2263	493.5005	1
1	2271	495.5005	0
1	2275	495.5005	1
1	2277	497.5005	0
1	2282	497.5005	1
1	2286	499.5005	0
1	2288	499.5005	1
1	2290	501.5005	0
1	2370	522.0005	1
1	2371	523.5005	0
1	2373	523.5005	1
1	2376	525.5005	0
1	2396	526.0005	1
1	2400	527.5005	0
1	2454	538.0005	1
1	2455	539.5005	0
1	2553	558.0005	1
1	2556	560.0005	0
1	2561	560.0005	1
1	2565	562.0005	0
1	2569	562.0005	1
1	2570	564.0005	0
1	2572	564.0005	1
1	2574	566.0005	0
1	2577	566.0005	1
1	2581	566.0005	2
1	2584	568.0005	1
1	2592	569.5005	2
1	2596	570.0005	1
1	2600	570.0005	2
1	2606	571.5005	3
1	2607	572.0005	2
1	2620	573.5005	3
1	2622	574.0005	2
1	2639	575.5005	3
1	2640	576.0005	2
1	2642	576.0005	3
1	2644	578.0005	2
1	2664	578.0005	3
1	2676	580.0005	2
1	2687	580.0005	3
1	2692	582.0005	2
1	2694	582.0005	3
1	2696	584.0005	2
1	2717	586.0005	1
1	2721	586.0005	2
1	2734	588.0005	1
1	2757	589.5005	2
1	2759	590.0005	1
1	2762	590.0005	2
1	2766	590.0005	3
1	2771	592.0005	2
1	2773	592.0005	3
1	2776	594.0005	2
1	2780	594.0005	3
1	2788	596.0005	2
1	2799	597.0005	3
1	2800	598.0005	2
1	2813	600.0005	1
1	2828	602.0005	0
1	2852	604.0005	1
1	2859	604.5005	2
1	2869	606.0005	1
1	2873	606.0005	2
1	2886	608.0005	1
1	2896	610.0005	0
1	3056	637.5005	1
1	3071	639.0005	0
1	3081	639.5005	1
1	3091	641.0005	0
1	3102	642.0005	1
1	3104	643.0005	0
1	3114	643.5005	1
1	3117	644.5005	2
1	3118	645.0005	1
1	3129	646.5005	2
1	3130	647.0005	1
1	3138	649.0005	0
1	3218	664.5005	1
1	3219	666.0005	0
1	3221	666.0005	1
1	3226	668.0005	0
1	3242	668.5005	1
1	3243	670.0005	0
1	3267	672.5005	1
1	3270	674.0005	0
1	3286	676.5005	1
1	3287	678.0005	0
1	3289	678.0005	1
1	3294	680.0005	0
1	3296	680.0005	1
1	3300	682.0005	0
1	3305	682.0005	1
1	3311	684.0005	0
1	3333	688.5005	1
1	3335	690.0005	0
1	3347	690.0005	1
1	3348	692.0005	0
1	3402	698.0005	1
1	3403	698.5005	0
1	3407	698.5005	1
1	3417	700.5005	0
1	3427	700.5005	1
1	3431	702.5005	0
1	3437	702.5005	1
1	3441	704.5005	0
1	3447	704.5005	1
1	3451	706.5005	0
1	3458	708.0005	1
1	3460	708.5005	0
1	3463	708.5005	1
1	3464	708.5005	2
1	3465	710.5005	1
1	3472	712.5005	0
1	3636	760.5005	1
1	3637	761.0005	0
1	3653	763.5005	1
1	3656	764.5005	2
1	3658	765.0005	1
1	3665	767.0005	0
1	3669	767.0005	1
1	3673	769.0005	0
1	3723	780.5005	1
1	3724	781.5005	0
1	3726	781.5005	1
1	3727	783.5005	0
1	3735	783.5005	1
1	3746	785.5005	0
1	3751	785.5005	1
1	3753	787.5005	0
1	3785	792.5005	1
1	3786	793.5005	0
1	3803	796.5005	1
1	3805	797.5005	0
1	3825	801.0005	1
1	3827	802.5005	0
1	3833	802.5005	1
1	3837	804.5005	0
1	3841	804.5005	1
1	3844	804.5005	2
1	3845	806.5005	1
1	3847	806.5005	2
1	3851	808.5005	1
1	3859	810.5005	0
1	3889	814.5005	1
1	3890	815.0005	0
1	3895	815.0005	1
1	3900	816.5005	2
1	3901	817.0005	1
1	3910	819.0005	0
1	3937	822.5005	1
1	3940	823.5005	0
1	3950	824.5005	1
1	3952	825.5005	0
1	3979	825.5005	1
1	3982	827.5005	0
1	3984	827.5005	1
1	3991	829.5005	0
1	4017	836.5005	1
1	4021	837.5005	0
1	4065	848.5005	1
1	4066	850.0005	0
1	4083	852.5005	1
1	4086	854.0005	0
1	4088	854.0005	1
1	4093	856.0005	0
1	4123	857.5005	1
1	4124	858.0005	0
1	4138	859.0005	1
1	4139	860.0005	0
1	4491	962.5005	1
1	4494	964.0005	0
1	4496	964.0005	1
1	4504	966.0005	0
1	4509	967.0005	1
1	4510	968.0005	0
1	4548	973.5005	1
1	4549	974.5005	0
1	4571	976.5005	1
1	4577	978.5005	0
1	4712	1006.5005	1
1	4713	1007.0005	0
1	4721	1007.0005	1
1	4724	1008.5005	2
1	4725	1009.0005	1
1	4729	1009.0005	2
1	4731	1011.0005	1
1	4734	1011.0005	2
1	4738	1013.0005	1
1	4740	1013.0005	2
1	4744	1015.0005	1
1	4748	1015.0005	2
1	4752	1016.0005	3
1	4755	1016.5005	4
1	4756	1017.0005	3
1	4762	1019.0005	2
1	4767	1019.5005	3
1	4771	1021.0005	2
1	4784	1022.0005	3
1	4785	1023.0005	2
1	4794	1025.0005	1
1	4800	1025.0005	2
1	4808	1026.0005	3
1	4809	1027.0005	2
1	4814	1027.0005	3
1	4816	1029.0005	2
1	4819	1029.0005	3
1	4829	1031.0005	2
1	4831	1031.0005	3
1	4834	1033.0005	2
1	4842	1033.0005	3
1	4848	1035.0005	2
1	4859	1037.0005	1
1	4885	1037.0005	2
1	4890	1038.0005	3
1	4892	1039.0005	2
1	4897	1039.0005	3
1	4910	1041.0005	2
1	4920	1043.0005	1
1	4930	1044.0005	2
1	4932	1045.0005	1
1	4937	1045.0005	2
1	4941	1047.0005	1
1	4945	1047.0005	2
1	4952	1049.0005	1
1	4957	1049.0005	2
1	4963	1051.0005	1
1	4974	1051.0005	2
1	4981	1053.0005	1
1	4984	1053.0005	2
1	4990	1055.0005	1
1	4992	1055.0005	2
1	4993	1057.0005	1
1	5002	1059.0005	0
1	5052	1070.0005	1
1	5053	1071.5005	0
1	5099	1086.5005	1
1	5100	1087.5005	0
1	5133	1093.5005	1
1	5134	1094.5005	0
1	5136	1094.5005	1
1	5137	1096.5005	0
1	5237	1117.5005	1
1	5239	1119.0005	0
1	5248	1120.0005	1
1	5249	1121.0005	0
1	5251	1121.0005	1
1	5262	1122.5005	2
1	5264	1123.0005	1
1	5270	1124.5005	2
1	5271	1125.0005	1
1	5273	1125.0005	2
1	5279	1125.5005	3
1	5280	1127.0005	2
1	5282	1127.0005	3
1	5285	1129.0005	2
1	5297	1131.0005	1
1	5301	1133.0005	0
1	5312	1133.5005	1
1	5315	1134.5005	2
1	5316	1135.0005	1
1	5323	1136.5005	2
1	5324	1137.0005	1
1	5335	1139.0005	0
1	5340	1139.0005	1
1	5343	1139.0005	2
1	5344	1141.0005	1
1	5354	1143.0005	0
1	5366	1144.0005	1
1	5367	1145.0005	0
1	5380	1145.5005	1
1	5381	1145.5005	2
1	5386	1147.0005	1
1	5397	1149.0005	0
1	5404	1149.0005	1
1	5409	1149.5005	2
1	5410	1151.0005	1
1	5414	1153.0005	0
1	5446	1158.0005	1
1	5447	1159.0005	0
1	5452	1160.0005	1
1	5454	1161.0005	0
1	5457	1161.0005	1
1	5460	1161.5005	2
1	5461	1163.0005	1
1	5464	1165.0005	0
1	5542	1181.5005	1
1	5543	1182.5005	0
1	5641	1201.5005	1
1	5642	1203.0005	0
1	5655	1204.5005	1
1	5656	1205.0005	0
1	5666	1205.5005	1
1	5670	1207.0005	0
1	5675	1207.0005	1
1	5681	1209.0005	0
1	5719	1214.5005	1
1	5721	1215.5005	0
1	5759	1223.0005	1
1	5761	1223.5005	0
1	5770	1224.5005	1
1	5772	1225.5005	0
1	5834	1231.0005	1
1	5835	1231.5005	0
1	5861	1235.5005	1
1	5867	1237.5005	0
1	5878	1238.0005	1
1	5879	1239.5005	0
1	5883	1239.5005	1
1	5885	1241.5005	0
1	5888	1241.5005	1
1	5898	1243.5005	0
1	5903	1244.5005	1
1	5905	1245.5005	0
1	5949	1253.5005	1
1	5950	1254.0005	0
1	5995	1265.5005	1
1	5996	1266.5005	0
1	6102	1309.5005	1
1	6103	1310.5005	0
1	6111	1313.5005	1
1	6112	1314.5005	0
2	0	0	0
2	371	56.0005	1
2	374	57.5005	0
2	438	77.5005	1
2	441	79.0005	0
2	446	80.0005	1
2	447	80.5005	0
2	458	81.0005	1
2	461	82.0005	0
2	950	204.0005	1
2	953	205.5005	0
2	1143	248.0005	1
2	1144	248.5005	0
2	1164	254.0005	1
2	1165	255.0005	0
2	1259	270.5005	1
2	1260	271.5005	0
2	1493	320.0005	1
2	1496	321.0005	0
2	1498	321.0005	1
2	1499	322.5005	0
2	1734	376.0005	1
2	1737	377.5005	0
2	2012	449.0005	1
2	2015	449.5005	0
2	2040	452.0005	1
2	2041	453.5005	0
2	2310	502.0005	1
2	2315	503.0005	0
2	2807	598.0005	1
2	2809	599.5005	0
2	2821	600.0005	1
2	2825	601.0005	0
2	2832	602.0005	1
2	2833	602.5005	0
2	3035	634.5005	1
2	3040	636.0005	0
2	3391	696.0005	1
2	3396	697.0005	0
2	3587	752.5005	1
2	3588	753.0005	0
2	3596	753.0005	1
2	3599	754.5005	0
2	3604	754.5005	1
2	3607	756.0005	0
2	3609	756.0005	1
2	3620	757.5005	0
2	3855	808.5005	1
2	3856	810.0005	0
2	3858	810.0005	1
2	3864	810.5005	2
2	3865	811.5005	1
2	3879	813.0005	0
2	4008	833.5005	1
2	4009	834.0005	0
2	4011	834.0005	1
2	4012	835.5005	0
2	4152	860.5005	1
2	4157	861.5005	0
2	4398	940.5005	1
2	4399	941.0005	0
2	4704	1004.5005	1
2	4705	1005.0005	0
2	4924	1043.0005	1
2	4926	1044.0005	0
2	4931	1044.0005	1
2	4938	1045.5005	0
2	5010	1061.5005	1
2	5011	1062.5005	0
2	5360	1143.0005	1
2	5361	1144.0005	0
2	5369	1145.0005	1
2	5371	1145.5005	0
2	5753	1221.5005	1
2	5757	1223.0005	0
2	5764	1223.5005	1
2	5765	1224.5005	0
2	5855	1235.0005	1
2	5857	1235.5005	0
3	0	0	0
3	42	0.0005	1
3	50	1.0005	0
3	106	6.0005	1
3	111	6.5005	0
3	2713	584.0005	1
3	2714	585.0005	0
3	3048	636.5005	1
3	3050	637.0005	0
3	5849	1233.5005	1
3	5850	1234.0005	0
3	5929	1249.5005	1
3	5930	1250.0005	0
4	0	0	0
4	52	1.0005	1
4	53	1.0005	2
4	54	1.0005	3
4	55	1.0005	4
4	56	1.0005	5
4	57	1.0005	6
4	71	2.0005	7
4	72	2.0005	8
4	73	2.0005	9
4	74	2.0005	10
4	75	2.0005	11
4	76	2.0005	12
4	77	2.0005	13
4	86	3.0005	14
4	87	3.0005	15
4	88	3.0005	16
4	89	3.0005	17
4	94	4.0005	18
4	95	4.0005	19
4	96	4.0005	20
4	107	6.0005	19
4	115	7.0005	20
4	121	7.5005	19
4	127	8.0005	18
4	135	11.0005	19
4	137	11.5005	20
4	143	14.0005	19
4	148	15.0005	20
4	153	16.0005	19
4	154	16.0005	18
4	162	16.0005	19
4	165	17.0005	18
4	168	17.0005	17
4	172	17.0005	18
4	181	19.0005	19
4	189	21.0005	20
4	204	25.5005	19
4	207	25.5005	18
4	211	25.5005	19
4	217	27.5005	20
4	229	30.0005	19
4	235	30.5005	18
4	238	30.5005	17
4	243	31.0005	18
4	245	31.5005	19
4	251	32.0005	18
4	256	32.0005	19
4	259	33.5005	18
4	268	34.5005	19
4	275	36.0005	18
4	276	36.0005	17
4	283	36.0005	16
4	284	36.0005	17
4	287	36.0005	16
4	292	37.5005	17
4	297	38.0005	18
4	298	38.0005	19
4	304	40.0005	20
4	307	40.0005	19
4	312	41.0005	20
4	318	44.0005	19
4	321	44.0005	18
4	327	45.0005	19
4	336	48.0005	20
4	349	54.0005	19
4	352	54.0005	18
4	355	54.0005	17
4	360	55.0005	18
4	365	56.0005	19
4	368	56.0005	18
4	373	57.0005	19
4	378	58.0005	20
4	384	59.0005	19
4	393	62.0005	18
4	398	63.0005	19
4	406	66.0005	20
4	409	68.0005	19
4	417	71.0005	20
4	426	75.5005	19
4	440	78.5005	20
4	449	80.5005	19
4	452	80.5005	18
4	460	81.5005	19
4	463	82.0005	18
4	478	84.0005	17
4	483	84.5005	18
4	488	85.5005	17
4	494	86.0005	18
4	499	87.0005	19
4	509	89.5005	20
4	516	91.5005	19
4	528	95.0005	18
4	534	95.5005	19
4	539	96.0005	18
4	544	97.0005	19
4	549	99.0005	20
4	561	103.5005	19
4	575	106.5005	20
4	593	114.0005	19
4	603	116.0005	20
4	604	116.0005	19
4	610	118.0005	18
4	613	118.0005	17
4	617	118.0005	18
4	618	118.0005	17
4	623	119.0005	18
4	628	120.0005	19
4	630	120.0005	18
4	637	122.0005	19
4	639	122.0005	18
4	650	124.0005	19
4	651	124.0005	20
4	657	125.0005	19
4	672	129.0005	20
4	680	132.0005	19
4	692	135.0005	20
4	713	147.0005	19
4	718	147.0005	20
4	742	156.0005	19
4	755	160.0005	20
4	768	164.0005	19
4	771	164.0005	18
4	775	164.0005	19
4	779	165.0005	20
4	781	165.0005	19
4	789	166.0005	20
4	795	168.0005	19
4	803	169.0005	18
4	804	169.0005	17
4	809	169.0005	16
4	815	170.0005	17
4	818	170.5005	16
4	821	170.5005	15
4	827	171.0005	16
4	832	171.5005	17
4	834	171.5005	16
4	837	171.5005	15
4	845	172.0005	16
4	846	172.0005	17
4	850	172.5005	18
4	851	172.5005	19
4	857	174.5005	20
4	862	175.0005	19
4	873	177.0005	20
4	876	177.5005	19
4	890	181.5005	20
4	893	183.0005	19
4	900	184.0005	20
4	904	188.0005	19
4	909	188.0005	20
4	915	192.0005	19
4	926	196.0005	20
4	947	204.0005	19
4	952	204.0005	20
4	964	208.0005	19
4	967	208.0005	18
4	971	208.0005	19
4	972	208.0005	18
4	975	208.0005	17
4	980	208.0005	18
4	983	208.5005	17
4	995	210.0005	18
4	996	210.0005	19
4	999	211.5005	18
4	1005	212.0005	17
4	1010	212.0005	18
4	1012	212.5005	19
4	1017	214.5005	20
4	1020	215.5005	19
4	1028	216.5005	20
4	1034	219.0005	19
4	1043	220.0005	18
4	1046	220.0005	17
4	1050	220.0005	18
4	1053	220.0005	19
4	1059	221.5005	18
4	1062	221.5005	17
4	1069	222.5005	18
4	1072	223.0005	19
4	1080	224.5005	20
4	1107	240.0005	19
4	1113	242.0005	20
4	1121	244.0005	19
4	1124	244.0005	18
4	1137	247.0005	19
4	1138	247.0005	20
4	1158	253.5005	19
4	1169	255.5005	20
4	1183	258.0005	19
4	1184	258.0005	18
4	1192	258.0005	19
4	1198	260.0005	18
4	1204	260.5005	17
4	1209	261.0005	18
4	1212	261.5005	17
4	1215	261.5005	16
4	1220	262.0005	17
4	1223	262.5005	18
4	1237	264.5005	19
4	1242	265.5005	20
4	1265	272.0005	19
4	1268	272.0005	18
4	1283	276.0005	19
4	1284	276.0005	20
4	1290	280.0005	19
4	1299	283.0005	20
4	1315	288.0005	19
4	1327	292.0005	20
4	1333	293.0005	19
4	1342	294.0005	18
4	1350	296.0005	19
4	1352	296.0005	18
4	1356	296.0005	17
4	1359	296.0005	16
4	1362	296.0005	15
4	1367	297.0005	16
4	1370	297.5005	15
4	1373	297.5005	14
4	1377	297.5005	15
4	1383	298.0005	16
4	1384	298.0005	17
4	1387	299.0005	18
4	1392	300.0005	19
4	1400	301.5005	20
4	1415	305.0005	19
4	1420	305.0005	20
4	1428	308.0005	19
4	1432	308.0005	18
4	1435	308.0005	17
4	1442	309.0005	18
4	1447	310.0005	19
4	1456	312.0005	20
4	1462	313.5005	19
4	1470	314.5005	20
4	1475	316.0005	19
4	1484	319.0005	20
4	1490	320.0005	19
4	1495	320.0005	20
4	1501	322.5005	19
4	1516	325.5005	20
4	1518	325.5005	19
4	1523	325.5005	20
4	1529	328.0005	19
4	1536	332.0005	20
4	1543	337.0005	19
4	1546	337.0005	18
4	1550	337.0005	19
4	1553	337.0005	20
4	1559	340.0005	19
4	1562	340.0005	18
4	1567	340.0005	19
4	1572	341.0005	18
4	1578	342.0005	19
4	1583	343.0005	20
4	1607	353.5005	19
4	1610	353.5005	18
4	1613	353.5005	17
4	1616	353.5005	16
4	1621	355.5005	17
4	1628	356.5005	18
4	1629	356.5005	19
4	1630	356.5005	20
4	1636	360.0005	19
4	1641	360.0005	20
4	1658	368.0005	19
4	1659	368.0005	18
4	1665	368.0005	17
4	1670	368.0005	18
4	1673	369.5005	17
4	1679	370.0005	18
4	1684	371.0005	19
4	1692	372.0005	18
4	1695	372.0005	17
4	1700	373.5005	18
4	1705	374.0005	19
4	1706	374.0005	20
4	1707	374.0005	19
4	1710	374.0005	18
4	1713	374.0005	17
4	1718	375.0005	18
4	1725	376.0005	19
4	1726	376.0005	20
4	1728	376.0005	19
4	1731	376.0005	18
4	1736	377.0005	19
4	1741	378.0005	20
4	1756	381.5005	19
4	1761	382.5005	20
4	1779	389.5005	19
4	1785	391.5005	18
4	1791	392.0005	17
4	1797	392.5005	18
4	1798	392.5005	19
4	1801	393.0005	18
4	1804	393.0005	17
4	1808	393.0005	18
4	1811	394.0005	19
4	1814	395.0005	18
4	1817	395.0005	17
4	1826	396.5005	16
4	1833	397.0005	17
4	1834	397.0005	18
4	1835	397.0005	19
4	1840	398.5005	20
4	1873	414.0005	19
4	1876	414.0005	18
4	1880	414.0005	19
4	1887	417.0005	18
4	1892	417.0005	19
4	1894	418.0005	20
4	1897	420.0005	19
4	1903	422.0005	20
4	1911	426.0005	19
4	1914	426.0005	18
4	1917	426.0005	17
4	1923	427.0005	18
4	1924	427.0005	19
4	1927	427.5005	18
4	1933	428.0005	17
4	1936	428.0005	16
4	1939	428.0005	15
4	1944	428.0005	16
4	1946	429.0005	17
4	1948	430.0005	18
4	1950	430.5005	19
4	1952	431.0005	20
4	1958	434.0005	19
4	1963	435.0005	20
4	1974	440.0005	19
4	1986	443.0005	20
4	1991	444.0005	19
4	1999	446.0005	20
4	2009	449.0005	19
4	2014	449.0005	20
4	2020	451.0005	19
4	2028	452.0005	18
4	2029	452.0005	17
4	2034	452.0005	16
4	2039	452.0005	17
4	2045	454.0005	18
4	2048	455.0005	19
4	2050	455.0005	18
4	2055	455.0005	19
4	2059	456.0005	20
4	2078	462.5005	19
4	2081	462.5005	18
4	2086	462.5005	19
4	2091	463.5005	20
4	2097	464.0005	19
4	2104	465.0005	20
4	2111	467.5005	19
4	2114	467.5005	18
4	2117	467.5005	17
4	2120	467.5005	16
4	2125	467.5005	17
4	2128	468.0005	16
4	2131	468.0005	15
4	2136	468.5005	16
4	2140	469.5005	17
4	2145	471.0005	18
4	2146	471.0005	19
4	2151	471.5005	20
4	2156	472.0005	19
4	2171	475.5005	18
4	2178	476.0005	19
4	2183	477.5005	20
4	2190	479.5005	19
4	2193	479.5005	18
4	2197	479.5005	19
4	2198	479.5005	18
4	2204	480.0005	17
4	2214	481.5005	18
4	2217	483.0005	19
4	2220	483.5005	20
4	2222	483.5005	19
4	2234	487.5005	20
4	2245	490.0005	19
4	2248	490.0005	18
4	2255	491.0005	19
4	2268	494.0005	20
4	2279	497.5005	19
4	2291	501.5005	20
4	2293	501.5005	19
4	2296	501.5005	18
4	2299	501.5005	17
4	2303	501.5005	18
4	2307	502.0005	17
4	2313	502.5005	18
4	2314	502.5005	19
4	2318	503.0005	20
4	2337	510.0005	19
4	2342	513.0005	20
4	2345	514.0005	19
4	2350	517.0005	20
4	2353	518.0005	19
4	2359	520.0005	20
4	2367	522.0005	19
4	2375	524.0005	20
4	2378	525.5005	19
4	2381	525.5005	18
4	2385	525.5005	19
4	2386	525.5005	18
4	2390	525.5005	19
4	2393	525.5005	20
4	2405	529.0005	19
4	2408	529.0005	18
4	2413	529.0005	19
4	2420	530.0005	20
4	2421	530.0005	19