version 2
run General-17-20141111-14:44:26-8684
attr configname General
attr datetime 20141111-14:44:26
attr experiment General
attr inifile routerTerminal.ini
attr iterationvars ""
attr iterationvars2 $repetition=17
attr measurement ""
attr network Network1
attr processid 8684
attr repetition 17
attr replication #17
attr resultdir results
attr runnumber 17
attr seedset 17

vector 0  Network1.queue1  queueLength:vector  ETV
attr interpolationmode  sample-hold
attr title  "queue length, vector"
vector 1  Network1.queue2  queueLength:vector  ETV
attr interpolationmode  sample-hold
attr title  "queue length, vector"
vector 2  Network1.queue3  queueLength:vector  ETV
attr interpolationmode  sample-hold
attr title  "queue length, vector"
vector 3  Network1.queue4  queueLength:vector  ETV
attr interpolationmode  sample-hold
attr title  "queue length, vector"
vector 4  Network1.allocate  queueLength:vector  ETV
attr interpolationmode  sample-hold
attr title  "queue length, vector"
0	0	0	0
0	41	0.0005	1
0	58	1.0005	2
0	61	1.5005	3
0	89	3.0005	4
0	93	4.0005	3
0	107	8.0005	2
0	121	11.5005	3
0	122	12.0005	2
0	132	12.0005	3
0	135	13.0005	4
0	138	16.0005	3
0	146	17.5005	4
0	149	20.0005	3
0	158	24.0005	2
0	170	28.0005	1
0	178	28.0005	2
0	181	28.5005	3
0	184	29.0005	4
0	185	32.0005	3
0	199	36.0005	2
0	224	40.0005	1
0	253	44.0005	0
0	257	44.0005	1
0	269	46.5005	2
0	277	47.5005	3
0	278	48.0005	2
0	283	48.0005	3
0	294	51.5005	4
0	295	52.0005	3
0	313	56.0005	2
0	337	60.0005	1
0	345	60.0005	2
0	348	60.5005	3
0	360	64.0005	2
0	370	64.0005	3
0	379	68.0005	2
0	398	71.0005	3
0	399	71.0005	4
0	400	72.0005	3
0	405	73.5005	4
0	408	76.0005	3
0	410	76.0005	4
0	411	80.0005	3
0	427	81.5005	4
0	430	84.0005	3
0	435	85.0005	4
0	438	88.0005	3
0	449	92.0005	2
0	453	92.0005	3
0	461	96.0005	2
0	466	96.0005	3
0	473	100.0005	2
0	481	101.0005	3
0	484	101.5005	4
0	485	104.0005	3
0	501	108.0005	2
0	505	108.0005	3
0	512	111.5005	4
0	513	112.0005	3
0	515	112.0005	4
0	516	116.0005	3
0	521	118.0005	4
0	522	120.0005	3
0	524	120.0005	4
0	525	124.0005	3
0	539	128.0005	2
0	546	129.0005	3
0	547	129.0005	4
0	548	132.0005	3
0	550	132.0005	4
0	551	136.0005	3
0	559	137.0005	4
0	560	140.0005	3
0	567	140.0005	4
0	568	144.0005	3
0	584	147.5005	4
0	585	148.0005	3
0	587	148.0005	4
0	592	152.0005	3
0	609	153.0005	4
0	614	156.0005	3
0	630	160.0005	2
0	635	160.5005	3
0	642	164.0005	2
0	647	164.0005	3
0	657	168.0005	2
0	677	172.0005	1
0	682	172.0005	2
0	685	172.0005	3
0	691	176.0005	2
0	701	177.5005	3
0	704	178.0005	4
0	705	180.0005	3
0	718	180.0005	4
0	723	184.0005	3
0	738	186.0005	4
0	739	188.0005	3
0	755	191.5005	4
0	756	192.0005	3
0	763	193.5005	4
0	764	196.0005	3
0	769	196.0005	4
0	772	200.0005	3
0	781	204.0005	2
0	792	207.0005	3
0	793	208.0005	2
0	798	208.5005	3
0	801	209.0005	4
0	802	212.0005	3
0	811	216.0005	2
0	826	220.0005	1
0	842	221.5005	2
0	849	224.0005	1
0	853	224.0005	2
0	866	226.5005	3
0	867	228.0005	2
0	885	232.0005	1
0	900	233.5005	2
0	906	236.0005	1
0	934	238.0005	2
0	939	238.5005	3
0	944	240.0005	2
0	952	240.0005	3
0	961	244.0005	2
0	969	244.5005	3
0	978	248.0005	2
0	983	248.5005	3
0	993	252.0005	2
0	1001	254.5005	3
0	1005	256.0005	2
0	1009	256.0005	3
0	1013	257.0005	4
0	1014	260.0005	3
0	1028	264.0005	2
0	1032	264.0005	3
0	1042	266.0005	4
0	1043	268.0005	3
0	1045	268.0005	4
0	1048	272.0005	3
0	1060	276.0005	2
0	1077	280.0005	1
0	1094	283.5005	2
0	1095	284.0005	1
0	1125	288.0005	0
0	1137	289.5005	1
0	1150	292.0005	0
0	1152	292.0005	1
0	1164	293.5005	2
0	1172	296.0005	1
0	1189	300.0005	0
0	1191	300.0005	1
0	1207	304.0005	0
0	1214	304.0005	1
0	1233	307.5005	2
0	1235	308.0005	1
0	1249	310.5005	2
0	1252	311.5005	3
0	1253	312.0005	2
0	1261	313.5005	3
0	1269	315.5005	4
0	1270	316.0005	3
0	1278	320.0005	2
0	1297	322.0005	3
0	1298	324.0005	2
0	1303	324.0005	3
0	1314	325.0005	4
0	1317	328.0005	3
0	1323	332.0005	2
0	1327	332.0005	3
0	1328	332.0005	4
0	1329	336.0005	3
0	1331	336.0005	4
0	1332	340.0005	3
0	1340	341.0005	4
0	1341	344.0005	3
0	1343	344.0005	4
0	1346	348.0005	3
0	1355	352.0005	2
0	1357	352.0005	3
0	1363	354.5005	4
0	1364	356.0005	3
0	1372	357.0005	4
0	1375	360.0005	3
0	1384	364.0005	2
0	1399	368.0005	1
0	1403	368.0005	2
0	1412	370.0005	3
0	1414	372.0005	2
0	1419	372.0005	3
0	1422	373.5005	4
0	1423	376.0005	3
0	1432	380.0005	2
0	1437	380.0005	3
0	1454	384.0005	2
0	1464	385.5005	3
0	1468	386.5005	4
0	1469	388.0005	3
0	1471	388.0005	4
0	1472	392.0005	3
0	1486	396.0005	2
0	1499	397.5005	3
0	1503	400.0005	2
0	1511	400.5005	3
0	1517	404.0005	2
0	1534	407.5005	3
0	1535	408.0005	2
0	1543	409.0005	3
0	1553	412.0005	2
0	1578	416.0005	1
0	1586	416.0005	2
0	1594	417.5005	3
0	1600	420.0005	2
0	1628	424.0005	1
0	1647	428.0005	0
0	1649	428.0005	1
0	1678	431.5005	2
0	1679	432.0005	1
0	1683	432.0005	2
0	1690	433.0005	3
0	1698	436.0005	2
0	1718	439.5005	3
0	1719	440.0005	2
0	1724	440.0005	3
0	1733	444.0005	2
0	1738	444.0005	3
0	1745	448.0005	2
0	1762	451.5005	3
0	1763	452.0005	2
0	1779	455.5005	3
0	1780	456.0005	2
0	1782	456.0005	3
0	1785	457.5005	4
0	1786	460.0005	3
0	1788	460.0005	4
0	1789	464.0005	3
0	1794	466.0005	4
0	1795	468.0005	3
0	1800	469.0005	4
0	1801	472.0005	3
0	1812	473.0005	4
0	1815	476.0005	3
0	1825	477.0005	4
0	1828	480.0005	3
0	1833	480.0005	4
0	1836	484.0005	3
0	1852	487.5005	4
0	1853	488.0005	3
0	1872	492.0005	2
0	1880	493.0005	3
0	1885	493.5005	4
0	1886	496.0005	3
0	1898	500.0005	2
0	1908	500.0005	3
0	1935	503.5005	4
0	1936	504.0005	3
0	1941	504.0005	4
0	1950	508.0005	3
0	1955	509.5005	4
0	1956	512.0005	3
0	1965	516.0005	2
0	1998	519.5005	3
0	2002	519.5005	4
0	2003	520.0005	3
0	2020	524.0005	2
0	2025	525.0005	3
0	2028	525.5005	4
0	2029	528.0005	3
0	2040	529.0005	4
0	2043	532.0005	3
0	2054	536.0005	2
0	2056	536.0005	3
0	2067	538.5005	4
0	2068	540.0005	3
0	2085	544.0005	2
0	2100	548.0005	1
0	2106	548.0005	2
0	2125	552.0005	1
0	2138	553.5005	2
0	2143	556.0005	1
0	2157	556.5005	2
0	2171	559.5005	3
0	2172	560.0005	2
0	2178	560.0005	3
0	2179	560.0005	4
0	2180	564.0005	3
0	2191	567.5005	4
0	2192	568.0005	3
0	2201	572.0005	2
0	2203	572.0005	3
0	2213	576.0005	2
0	2220	577.0005	3
0	2224	580.0005	2
0	2228	580.0005	3
0	2229	580.0005	4
0	2230	584.0005	3
0	2244	588.0005	2
0	2248	588.0005	3
0	2256	592.0005	2
0	2270	595.5005	3
0	2271	596.0005	2
0	2273	596.0005	3
0	2279	599.0005	4
0	2280	600.0005	3
0	2285	602.0005	4
0	2286	604.0005	3
0	2288	604.0005	4
0	2289	608.0005	3
0	2298	612.0005	2
0	2316	616.0005	1
0	2338	617.5005	2
0	2354	620.0005	1
0	2378	621.5005	2
0	2381	622.0005	3
0	2384	624.0005	2
0	2398	625.0005	3
0	2408	627.0005	4
0	2409	628.0005	3
0	2419	631.5005	4
0	2420	632.0005	3
0	2425	633.0005	4
0	2426	636.0005	3
0	2428	636.0005	4
0	2429	640.0005	3
0	2431	640.0005	4
0	2432	644.0005	3
0	2441	648.0005	2
0	2455	651.0005	3
0	2456	652.0005	2
0	2478	655.0005	3
0	2480	656.0005	2
0	2490	656.0005	3
0	2497	657.0005	4
0	2498	660.0005	3
0	2509	664.0005	2
0	2513	664.0005	3
0	2514	664.0005	4
0	2515	668.0005	3
0	2542	672.0005	2
0	2562	675.5005	3
0	2563	676.0005	2
0	2583	680.0005	1
0	2588	680.0005	2
0	2603	684.0005	1
0	2613	684.0005	2
0	2616	684.5005	3
0	2619	685.0005	4
0	2622	688.0005	3
0	2627	689.0005	4
0	2628	692.0005	3
0	2637	696.0005	2
0	2643	696.0005	3
0	2647	697.0005	4
0	2648	700.0005	3
0	2656	702.0005	4
0	2659	704.0005	3
0	2675	707.5005	4
0	2676	708.0005	3
0	2684	712.0005	2
0	2689	712.0005	3
0	2692	713.0005	4
0	2693	716.0005	3
0	2702	720.0005	2
0	2710	721.0005	3
0	2714	724.0005	2
0	2739	728.0005	1
0	2743	728.0005	2
0	2757	732.0005	1
0	2780	736.0005	0
0	2791	736.0005	1
0	2794	737.0005	2
0	2810	740.0005	1
0	2825	741.0005	2
0	2836	743.0005	3
0	2839	743.5005	4
0	2840	744.0005	3
0	2847	745.0005	4
0	2848	748.0005	3
0	2850	748.0005	4
0	2851	752.0005	3
0	2853	752.0005	4
0	2854	756.0005	3
0	2856	756.0005	4
0	2857	760.0005	3
0	2866	764.0005	2
0	2878	768.0005	1
0	2904	772.0005	0
0	2930	774.0005	1
0	2933	775.0005	2
0	2934	776.0005	1
0	2939	776.0005	2
0	2952	780.0005	1
0	2973	784.0005	0
0	2992	785.0005	1
0	3005	787.0005	2
0	3006	788.0005	1
0	3023	790.0005	2
0	3032	792.0005	1
0	3046	796.0005	0
0	3062	797.0005	1
0	3068	798.0005	2
0	3074	800.0005	1
0	3078	800.0005	2
0	3091	802.0005	3
0	3095	804.0005	2
0	3097	804.0005	3
0	3109	808.0005	2
0	3114	808.0005	3
0	3123	812.0005	2
0	3138	816.0005	1
0	3140	816.0005	2
0	3143	816.5005	3
0	3150	820.0005	2
0	3160	822.0005	3
0	3162	824.0005	2
0	3173	825.5005	3
0	3177	828.0005	2
0	3191	830.0005	3
0	3192	832.0005	2
0	3208	834.0005	3
0	3212	836.0005	2
0	3225	837.5005	3
0	3232	840.0005	2
0	3249	844.0005	1
0	3254	844.0005	2
0	3282	848.0005	1
0	3300	850.5005	2
0	3303	851.5005	3
0	3304	852.0005	2
0	3318	854.0005	3
0	3322	856.0005	2
0	3341	859.0005	3
0	3342	860.0005	2
0	3358	863.5005	3
0	3359	864.0005	2
0	3386	867.0005	3
0	3387	868.0005	2
0	3392	868.0005	3
0	3395	868.0005	4
0	3398	872.0005	3
0	3403	873.0005	4
0	3404	876.0005	3
0	3420	878.0005	4
0	3423	880.0005	3
0	3428	881.5005	4
0	3429	884.0005	3
0	3434	885.5005	4
0	3435	888.0005	3
0	3444	892.0005	2
0	3452	893.0005	3
0	3459	896.0005	2
0	3467	897.0005	3
0	3471	900.0005	2
0	3479	900.0005	3
0	3488	904.0005	2
0	3505	907.0005	3
0	3506	908.0005	2
0	3514	909.5005	3
0	3518	912.0005	2
0	3536	913.0005	3
0	3539	914.0005	4
0	3540	916.0005	3
0	3545	917.0005	4
0	3546	920.0005	3
0	3555	924.0005	2
0	3566	926.5005	3
0	3567	928.0005	2
0	3571	928.0005	3
0	3578	932.0005	2
0	3592	932.0005	3
0	3595	934.0005	4
0	3596	936.0005	3
0	3621	940.0005	2
0	3629	940.5005	3
0	3651	944.0005	2
0	3662	944.0005	3
0	3675	948.0005	2
0	3680	948.0005	3
0	3687	952.0005	2
0	3710	956.0005	1
0	3717	956.5005	2
0	3724	959.5005	3
0	3725	960.0005	2
0	3736	960.0005	3
0	3750	964.0005	2
0	3757	964.0005	3
0	3760	966.0005	4
0	3761	968.0005	3
0	3763	968.0005	4
0	3764	972.0005	3
0	3791	976.0005	2
0	3796	976.0005	3
0	3808	980.0005	2
0	3822	982.5005	3
0	3825	984.0005	2
0	3829	984.0005	3
0	3837	988.0005	2
0	3842	988.5005	3
0	3849	992.0005	2
0	3860	993.0005	3
0	3870	996.0005	2
0	3888	998.0005	3
0	3893	999.0005	4
0	3894	1000.0005	3
0	3905	1003.5005	4
0	3906	1004.0005	3
0	3914	1004.0005	4
0	3919	1008.0005	3
0	3932	1010.5005	4
0	3933	1012.0005	3
0	3935	1012.0005	4
0	3936	1016.0005	3
0	3941	1017.0005	4
0	3942	1020.0005	3
0	3944	1020.0005	4
0	3945	1024.0005	3
0	3950	1025.5005	4
0	3951	1028.0005	3
0	3953	1028.0005	4
0	3954	1032.0005	3
0	3959	1034.0005	4
0	3960	1036.0005	3
0	3966	1040.0005	2
0	3977	1042.0005	3
0	3978	1044.0005	2
0	3989	1044.0005	3
0	3997	1045.0005	4
0	4000	1048.0005	3
0	4010	1051.0005	4
0	4011	1052.0005	3
0	4023	1056.0005	2
0	4036	1059.5005	3
0	4037	1060.0005	2
0	4051	1062.5005	3
0	4055	1064.0005	2
0	4074	1067.0005	3
0	4075	1068.0005	2
0	4099	1071.0005	3
0	4100	1072.0005	2
0	4105	1072.0005	3
0	4117	1076.0005	2
0	4119	1076.0005	3
0	4126	1080.0005	2
0	4131	1080.5005	3
0	4134	1082.5005	4
0	4135	1084.0005	3
0	4148	1085.5005	4
0	4149	1088.0005	3
0	4163	1092.0005	2
0	4173	1092.0005	3
0	4176	1093.5005	4
0	4179	1096.0005	3
0	4181	1096.0005	4
0	4182	1100.0005	3
0	4195	1103.0005	4
0	4196	1104.0005	3
0	4204	1106.5005	4
0	4205	1108.0005	3
0	4210	1110.0005	4
0	4211	1112.0005	3
0	4226	1116.0005	2
0	4258	1119.5005	3
0	4259	1120.0005	2
0	4279	1124.0005	1
0	4308	1128.0005	0
0	4313	1128.0005	1
0	4330	1132.0005	0
0	4338	1133.0005	1
0	4341	1133.5005	2
0	4345	1136.0005	1
0	4351	1136.0005	2
0	4358	1137.0005	3
0	4367	1140.0005	2
0	4381	1141.0005	3
0	4389	1144.0005	2
0	4397	1144.0005	3
0	4414	1148.0005	2
0	4416	1148.0005	3
0	4419	1148.5005	4
0	4420	1152.0005	3
0	4428	1153.0005	4
0	4429	1156.0005	3
0	4445	1160.0005	2
0	4447	1160.0005	3
0	4450	1160.5005	4
0	4451	1164.0005	3
0	4462	1167.5005	4
0	4465	1168.0005	3
0	4473	1170.5005	4
0	4474	1172.0005	3
0	4493	1174.5005	4
0	4496	1176.0005	3
0	4501	1176.0005	4
0	4506	1180.0005	3
0	4517	1183.5005	4
0	4518	1184.0005	3
0	4527	1188.0005	2
0	4540	1189.0005	3
0	4560	1192.0005	2
0	4562	1192.0005	3
0	4576	1196.0005	2
0	4584	1197.0005	3
0	4593	1200.0005	2
0	4618	1203.0005	3
0	4619	1204.0005	2
0	4623	1204.0005	3
0	4638	1208.0005	2
0	4657	1210.5005	3
0	4661	1212.0005	2
0	4669	1213.0005	3
0	4674	1214.0005	4
0	4675	1216.0005	3
0	4690	1220.0005	2
0	4700	1222.5005	3
0	4703	1223.0005	4
0	4704	1224.0005	3
0	4710	1228.0005	2
0	4735	1231.5005	3
0	4736	1232.0005	2
0	4757	1234.5005	3
0	4763	1235.0005	4
0	4764	1236.0005	3
0	4773	1238.0005	4
0	4774	1240.0005	3
0	4779	1241.0005	4
0	4780	1244.0005	3
0	4799	1247.5005	4
0	4800	1248.0005	3
0	4811	1252.0005	2
0	4822	1253.0005	3
0	4825	1253.5005	4
0	4826	1256.0005	3
0	4836	1259.0005	4
0	4837	1260.0005	3
0	4842	1262.0005	4
0	4843	1264.0005	3
0	4845	1264.0005	4
0	4846	1268.0005	3
0	4855	1272.0005	2
0	4859	1272.0005	3
0	4863	1274.0005	4
0	4864	1276.0005	3
0	4866	1276.0005	4
0	4867	1280.0005	3
0	4869	1280.0005	4
0	4870	1284.0005	3
0	4879	1288.0005	2
0	4881	1288.0005	3
0	4887	1291.0005	4
0	4888	1292.0005	3
0	4890	1292.0005	4
0	4891	1296.0005	3
0	4897	1300.0005	2
0	4912	1304.0005	1
0	4920	1304.0005	2
0	4921	1304.0005	3
0	4922	1304.0005	4
0	4923	1308.0005	3
0	4931	1309.0005	4
0	4932	1312.0005	3
0	4936	1312.0005	4
0	4937	1316.0005	3
0	4945	1319.0005	4
0	4946	1320.0005	3
0	4960	1324.0005	2
0	4980	1326.0005	3
0	4986	1328.0005	2
0	5008	1332.0005	1
0	5037	1335.0005	2
0	5038	1335.0005	3
0	5039	1336.0005	2
0	5062	1340.0005	1
0	5067	1340.0005	2
0	5079	1344.0005	1
0	5087	1344.0005	2
0	5098	1346.0005	3
0	5099	1348.0005	2
0	5119	1352.0005	1
0	5123	1352.0005	2
0	5160	1356.0005	1
0	5172	1357.0005	2
0	5182	1360.0005	1
0	5189	1360.0005	2
0	5206	1362.0005	3
0	5210	1364.0005	2
0	5217	1364.0005	3
0	5231	1368.0005	2
0	5233	1368.0005	3
0	5240	1372.0005	2
0	5263	1376.0005	1
0	5267	1376.0005	2
0	5268	1376.0005	3
0	5271	1376.5005	4
0	5274	1380.0005	3
0	5293	1384.0005	2
0	5307	1385.5005	3
0	5310	1386.0005	4
0	5311	1388.0005	3
0	5313	1388.0005	4
0	5318	1392.0005	3
0	5335	1396.0005	2
0	5340	1397.5005	3
0	5349	1400.0005	2
0	5354	1401.5005	3
0	5358	1404.0005	2
0	5371	1405.5005	3
0	5375	1408.0005	2
0	5377	1408.0005	3
0	5387	1412.0005	2
0	5392	1412.0005	3
0	5399	1416.0005	2
0	5407	1416.0005	3
0	5413	1417.5005	4
0	5416	1420.0005	3
0	5420	1420.0005	4
0	5421	1424.0005	3
0	5423	1424.0005	4
0	5424	1428.0005	3
0	5441	1432.0005	2
0	5451	1433.0005	3
0	5457	1435.0005	4
0	5458	1436.0005	3
0	5463	1438.0005	4
0	5464	1440.0005	3
0	5480	1443.0005	4
0	5481	1444.0005	3
0	5483	1444.0005	4
0	5484	1448.0005	3
0	5490	1452.0005	2
0	5507	1455.5005	3
0	5508	1456.0005	2
0	5524	1458.0005	3
0	5528	1460.0005	2
0	5533	1460.0005	3
0	5550	1463.0005	4
0	5553	1464.0005	3
0	5566	1466.0005	4
0	5567	1468.0005	3
0	5577	1472.0005	2
0	5581	1472.0005	3
0	5594	1476.0005	2
0	5596	1476.0005	3
0	5602	1478.5005	4
0	5603	1480.0005	3
0	5617	1484.0005	2
0	5633	1485.5005	3
0	5639	1488.0005	2
0	5670	1492.0005	1
0	5677	1492.5005	2
0	5680	1494.0005	3
0	5683	1495.5005	4
0	5684	1496.0005	3
0	5686	1496.0005	4
0	5687	1500.0005	3
0	5704	1504.0005	2
0	5726	1507.5005	3
0	5727	1508.0005	2
0	5731	1508.0005	3
0	5737	1510.0005	4
0	5738	1512.0005	3
0	5750	1516.0005	2
0	5754	1516.0005	3
0	5757	1516.5005	4
0	5758	1520.0005	3
0	5769	1523.0005	4
0	5770	1524.0005	3
0	5788	1528.0005	2
0	5802	1530.5005	3
0	5803	1532.0005	2
0	5814	1533.5005	3
0	5817	1535.0005	4
0	5818	1536.0005	3
0	5832	1540.0005	2
0	5852	1542.0005	3
0	5858	1544.0005	2
0	5865	1545.0005	3
0	5871	1546.0005	4
0	5872	1548.0005	3
0	5886	1552.0005	2
0	5891	1552.0005	3
0	5895	1556.0005	2
0	5906	1558.0005	3
0	5907	1560.0005	2
0	5912	1560.0005	3
0	5918	1562.0005	4
0	5919	1564.0005	3
0	5933	1568.0005	2
0	5949	1571.0005	3
0	5950	1572.0005	2
0	5964	1573.5005	3
0	5970	1576.0005	2
0	5974	1576.0005	3
0	5978	1577.0005	4
0	5979	1580.0005	3
0	5988	1584.0005	2
0	5990	1584.0005	3
0	5997	1588.0005	2
0	6001	1588.0005	3
0	6012	1592.0005	2
0	6020	1595.5005	3
0	6021	1596.0005	2
0	6035	1597.5005	3
0	6038	1598.5005	4
0	6043	1600.0005	3
0	6052	1604.0005	2
0	6060	1604.0005	3
0	6072	1608.0005	2
0	6087	1609.0005	3
0	6090	1609.5005	4
0	6093	1612.0005	3
0	6106	1615.0005	4
0	6107	1616.0005	3
0	6119	1620.0005	2
0	6135	1621.0005	3
0	6145	1622.5005	4
0	6148	1624.0005	3
0	6171	1628.0005	2
0	6200	1632.0005	1
0	6208	1633.0005	2
0	6217	1634.0005	3
0	6223	1635.5005	4
0	6224	1636.0005	3
0	6238	1640.0005	2
0	6242	1640.0005	3
0	6251	1642.5005	4
0	6252	1644.0005	3
0	6259	1645.0005	4
0	6260	1648.0005	3
0	6262	1648.0005	4
0	6263	1652.0005	3
0	6277	1656.0005	2
0	6293	1658.0005	3
0	6305	1660.0005	2
0	6320	1664.0005	1
0	6346	1668.0005	0
0	6354	1668.5005	1
0	6375	1672.0005	0
0	6380	1672.0005	1
0	6391	1676.0005	0
0	6405	1677.5005	1
0	6411	1680.0005	0
0	6415	1680.0005	1
0	6420	1684.0005	0
0	6442	1687.0005	1
0	6443	1688.0005	0
0	6448	1688.0005	1
0	6459	1690.0005	2
0	6460	1692.0005	1
0	6468	1692.0005	2
0	6477	1696.0005	1
0	6482	1696.0005	2
0	6491	1698.5005	3
0	6492	1700.0005	2
0	6511	1702.5005	3
0	6518	1704.0005	2
0	6526	1704.5005	3
0	6532	1708.0005	2
0	6552	1712.0005	1
0	6566	1713.0005	2
0	6582	1716.0005	1
0	6589	1717.0005	2
0	6599	1720.0005	1
0	6622	1720.5005	2
0	6643	1724.0005	1
0	6648	1724.0005	2
0	6666	1728.0005	1
0	6692	1730.5005	2
0	6697	1732.0005	1
0	6728	1736.0005	0
0	6747	1738.5005	1
0	6752	1739.5005	2
0	6753	1740.0005	1
0	6761	1741.5005	2
0	6765	1744.0005	1
0	6775	1745.5005	2
0	6782	1747.5005	3
0	6783	1748.0005	2
0	6787	1748.0005	3
0	6792	1752.0005	2
0	6797	1752.0005	3
0	6801	1756.0005	2
0	6824	1760.0005	1
0	6840	1764.0005	0
0	6844	1764.0005	1
0	6852	1768.0005	0
0	6854	1768.0005	1
0	6861	1772.0005	0
0	6866	1772.0005	1
0	6878	1776.0005	0
0	6957	1785.5005	1
0	6958	1786.0005	0
0	6975	1789.0005	1
0	6982	1790.0005	0
0	6990	1790.0005	1
0	6996	1791.0005	2
0	7010	1792.5005	3
0	7015	1793.0005	4
0	7020	1794.0005	3
0	7039	1797.5005	4
0	7040	1798.0005	3
0	7052	1801.0005	4
0	7053	1802.0005	3
0	7073	1806.0005	2
0	7087	1807.0005	3
0	7090	1807.5005	4
0	7091	1810.0005	3
0	7093	1810.0005	4
0	7094	1814.0005	3
0	7100	1818.0005	2
0	7108	1818.0005	3
0	7112	1822.0005	2
0	7137	1826.0005	1
0	7155	1830.0005	0
0	7159	1830.0005	1
0	7175	1831.5005	2
0	7186	1834.0005	1
0	7200	1836.5005	2
0	7204	1838.0005	1
0	7206	1838.0005	2
0	7218	1839.5005	3
0	7224	1842.0005	2
0	7241	1844.5005	3
0	7244	1846.0005	2
0	7267	1850.0005	1
0	7269	1850.0005	2
0	7287	1854.0005	1
0	7314	1858.0005	0
0	7342	1859.5005	1
0	7346	1859.5005	2
0	7362	1862.0005	1
0	7367	1862.0005	2
0	7370	1863.5005	3
0	7376	1866.0005	2
0	7391	1870.0005	1
0	7404	1872.0005	2
0	7417	1874.0005	1
0	7422	1875.0005	2
0	7431	1878.0005	1
0	7439	1881.0005	2
0	7440	1882.0005	1
0	7442	1882.0005	2
0	7449	1886.0005	1
0	7483	1889.0005	2
0	7486	1889.5005	3
0	7487	1890.0005	2
0	7504	1892.5005	3
0	7510	1894.0005	2
0	7526	1896.0005	3
0	7530	1898.0005	2
0	7532	1898.0005	3
0	7544	1901.0005	4
0	7545	1902.0005	3
0	7552	1904.0005	4
0	7553	1906.0005	3
0	7566	1908.0005	4
0	7567	1910.0005	3
0	7572	1911.0005	4
0	7573	1914.0005	3
0	7582	1918.0005	2
0	7605	1922.0005	1
0	7610	1922.5005	2
0	7622	1924.5005	3
0	7625	1925.0005	4
0	7628	1926.0005	3
0	7634	1930.0005	2
0	7648	1932.5005	3
0	7649	1934.0005	2
0	7670	1938.0005	1
0	7676	1938.0005	2
0	7680	1938.0005	3
0	7688	1942.0005	2
0	7692	1942.0005	3
0	7703	1946.0005	2
0	7710	1946.0005	3
0	7719	1950.0005	2
0	7738	1952.5005	3
0	7744	1954.0005	2
0	7761	1958.0005	1
0	7789	1961.0005	2
0	7796	1962.0005	1
0	7815	1966.0005	0
0	7823	1966.0005	1
0	7851	1969.5005	2
0	7852	1970.0005	1
0	7871	1971.0005	2
0	7874	1972.0005	3
0	7879	1972.5005	4
0	7882	1974.0005	3
0	7888	1978.0005	2
0	7920	1982.0005	1
0	7931	1982.0005	2
0	7943	1986.0005	1
0	7947	1986.0005	2
0	7959	1988.0005	3
0	7960	1990.0005	2
0	7987	1994.0005	1
0	7992	1994.0005	2
0	7996	1998.0005	1
0	8004	1999.5005	2
0	8008	2002.0005	1
0	8022	2003.0005	2
0	8026	2006.0005	1
0	8044	2008.0005	2
0	8048	2010.0005	1
0	8053	2010.5005	2
0	8059	2013.0005	3
0	8060	2014.0005	2
0	8071	2016.5005	3
0	8075	2018.0005	2
0	8080	2018.0005	3
0	8095	2022.0005	2
0	8108	2023.0005	3
0	8117	2026.0005	2
0	8135	2028.0005	3
0	8137	2030.0005	2
0	8146	2034.0005	1
0	8154	2035.0005	2
0	8159	2036.0005	3
0	8161	2038.0005	2
0	8174	2039.0005	3
0	8180	2041.5005	4
0	8181	2042.0005	3
0	8183	2042.0005	4
0	8184	2046.0005	3
0	8203	2050.0005	2
0	8215	2054.0005	1
0	8226	2055.5005	2
0	8242	2058.0005	1
0	8244	2058.0005	2
0	8251	2059.0005	3
0	8252	2059.0005	4
0	8253	2062.0005	3
0	8261	2065.0005	4
0	8262	2066.0005	3
0	8267	2066.0005	4
0	8270	2070.0005	3
0	8286	2073.5005	4
0	8287	2074.0005	3
0	8306	2078.0005	2
0	8321	2082.0005	1
0	8329	2082.5005	2
0	8337	2085.5005	3
0	8338	2086.0005	2
0	8355	2089.5005	3
0	8356	2090.0005	2
0	8373	2094.0005	1
0	8391	2098.0005	0
0	8397	2098.0005	1
0	8401	2098.0005	2
0	8410	2100.0005	3
0	8413	2101.0005	4
0	8414	2102.0005	3
0	8422	2106.0005	2
0	8433	2107.5005	3
0	8436	2109.0005	4
0	8437	2110.0005	3
0	8439	2110.0005	4
0	8440	2114.0005	3
0	8460	2118.0005	2
0	8476	2122.0005	1
0	8482	2122.0005	2
0	8483	2122.0005	3
0	8493	2126.0005	2
0	8504	2127.5005	3
0	8509	2128.5005	4
0	8510	2130.0005	3
0	8520	2133.0005	4
0	8521	2134.0005	3
0	8530	2138.0005	2
0	8550	2142.0005	1
0	8562	2146.0005	0
0	8581	2148.0005	1
0	8584	2150.0005	0
0	8597	2152.0005	1
0	8598	2152.0005	2
0	8599	2154.0005	1
0	8603	2154.0005	2
0	8616	2158.0005	1
0	8630	2162.0005	0
0	8652	2164.0005	1
0	8655	2164.0005	2
0	8660	2166.0005	1
0	8676	2168.0005	2
0	8677	2168.0005	3
0	8681	2170.0005	2
0	8688	2171.0005	3
0	8695	2174.0005	2
0	8708	2175.5005	3
0	8717	2178.0005	2
0	8731	2181.5005	3
0	8732	2182.0005	2
0	8737	2182.0005	3
0	8744	2186.0005	2
0	8755	2188.5005	3
0	8756	2190.0005	2
0	8758	2190.0005	3
0	8765	2194.0005	2
0	8770	2194.5005	3
0	8780	2198.0005	2
0	8793	2199.5005	3
0	8804	2202.0005	2
0	8806	2202.0005	3
0	8809	2202.5005	4
0	8810	2206.0005	3
0	8822	2210.0005	2
0	8851	2213.0005	3
0	8852	2214.0005	2
0	8867	2218.0005	1
0	8872	2218.0005	2
0	8878	2220.0005	3
0	8879	2222.0005	2
0	8883	2222.0005	3
0	8899	2226.0005	2
0	8910	2226.0005	3
0	8917	2230.0005	2
0	8922	2231.0005	3
0	8923	2234.0005	2
0	8929	2238.0005	1
0	8932	2242.0005	0
1	0	0	0
1	115	8.0005	1
1	116	10.0005	0
1	226	40.0005	1
1	230	41.5005	0
1	249	43.0005	1
1	250	43.5005	0
1	258	44.0005	1
1	264	45.5005	0
1	330	57.5005	1
1	331	58.0005	0
1	676	170.5005	1
1	678	172.0005	0
1	875	228.0005	1
1	876	230.0005	0
1	884	231.0005	1
1	887	232.0005	0
1	894	232.0005	1
1	903	234.0005	0
1	905	234.0005	1
1	907	236.0005	0
1	922	237.0005	1
1	929	238.0005	0
1	1073	279.0005	1
1	1074	279.5005	0
1	1076	279.5005	1
1	1079	280.0005	2
1	1080	281.5005	1
1	1086	283.5005	0
1	1103	284.0005	1
1	1106	284.5005	2
1	1111	285.5005	1
1	1115	285.5005	2
1	1116	287.5005	1
1	1127	288.0005	2
1	1135	289.5005	1
1	1144	291.5005	0
1	1149	291.5005	1
1	1158	292.5005	2
1	1159	293.5005	1
1	1168	295.5005	0
1	1171	295.5005	1
1	1179	297.0005	2
1	1180	297.5005	1
1	1185	299.0005	2
1	1186	299.5005	1
1	1197	301.0005	2
1	1198	301.5005	1
1	1203	302.5005	2
1	1204	303.5005	1
1	1218	305.5005	0
1	1222	305.5005	1
1	1229	307.5005	0
1	1234	307.5005	1
1	1241	309.5005	0
1	1248	310.5005	1
1	1250	311.5005	0
1	1255	312.0005	1
1	1256	313.5005	0
1	1398	367.0005	1
1	1400	368.0005	0
1	1496	397.0005	1
1	1497	397.5005	0
1	1582	416.0005	1
1	1587	416.5005	0
1	1619	421.5005	1
1	1620	423.0005	0
1	1625	423.0005	1
1	1633	424.0005	2
1	1634	425.0005	1
1	1641	426.5005	2
1	1643	427.0005	1
1	1653	429.0005	0
1	1776	453.5005	1
1	1777	455.5005	0
1	2087	544.0005	1
1	2088	545.5005	0
1	2139	553.5005	1
1	2140	554.5005	0
1	2153	556.0005	1
1	2155	556.5005	0
1	2215	576.0005	1
1	2217	577.0005	0
1	2267	594.0005	1
1	2268	595.5005	0
1	2321	616.0005	1
1	2330	617.0005	0
1	2367	620.5005	1
1	2379	622.0005	0
1	2452	650.0005	1
1	2453	651.0005	0
1	2461	652.0005	1
1	2462	653.0005	0
1	2704	720.0005	1
1	2705	721.0005	0
1	2765	732.0005	1
1	2771	734.0005	0
1	2868	764.0005	1
1	2869	765.0005	0
1	2886	768.0005	1
1	2892	770.0005	0
1	2903	771.0005	1
1	2905	772.0005	0
1	2912	772.0005	1
1	2927	774.0005	0
1	2957	780.0005	1
1	2958	781.0005	0
1	2963	781.0005	1
1	2967	783.0005	0
1	3017	788.5005	1
1	3018	790.0005	0
1	3039	792.0005	1
1	3042	793.0005	2
1	3043	794.0005	1
1	3045	794.0005	2
1	3047	796.0005	1
1	3066	798.0005	0
1	3073	799.0005	1
1	3075	800.0005	0
1	3125	812.0005	1
1	3126	812.5005	0
1	3137	815.0005	1
1	3141	816.5005	0
1	3188	829.5005	1
1	3189	830.0005	0
1	3350	861.0005	1
1	3351	862.0005	0
1	3560	924.0005	1
1	3561	924.5005	0
1	3563	924.5005	1
1	3564	926.5005	0
1	3692	952.0005	1
1	3693	952.5005	0
1	3712	956.0005	1
1	3713	956.5005	0
1	3718	956.5005	1
1	3719	958.5005	0
1	3974	1041.5005	1
1	3975	1042.0005	0
1	4025	1056.0005	1
1	4026	1056.5005	0
1	4028	1056.5005	1
1	4030	1058.5005	0
1	4128	1080.0005	1
1	4129	1080.5005	0
1	4283	1124.0005	1
1	4285	1125.0005	0
1	4293	1125.5005	1
1	4297	1127.0005	0
1	4304	1127.0005	1
1	4316	1128.0005	2
1	4317	1129.0005	1
1	4326	1130.0005	2
1	4327	1131.0005	1
1	4329	1131.0005	2
1	4333	1133.0005	1
1	4342	1135.0005	0
1	4692	1220.0005	1
1	4694	1221.0005	0
1	4905	1300.0005	1
1	4906	1302.0005	0
1	5025	1333.5005	1
1	5027	1334.0005	0
1	5047	1337.0005	1
1	5048	1338.0005	0
1	5061	1339.0005	1
1	5063	1340.0005	0
1	5070	1341.5005	1
1	5071	1342.0005	0
1	5078	1343.0005	1
1	5080	1344.0005	0
1	5095	1345.5005	1
1	5096	1346.0005	0
1	5144	1352.5005	1
1	5149	1354.0005	0
1	5159	1355.0005	1
1	5161	1356.0005	0
1	5167	1356.0005	1
1	5173	1358.0005	0
1	5337	1396.0005	1
1	5338	1397.5005	0
1	5351	1400.0005	1
1	5352	1401.5005	0
1	5501	1453.0005	1
1	5502	1454.0005	0
1	5903	1557.0005	1
1	5904	1558.0005	0
1	6014	1592.0005	1
1	6015	1593.5005	0
1	6017	1593.5005	1
1	6018	1595.5005	0
1	6310	1661.0005	1
1	6311	1661.5005	0
1	6316	1663.0005	1
1	6317	1663.5005	0
1	6328	1664.5005	1
1	6329	1665.5005	0
1	6368	1670.0005	1
1	6374	1671.5005	2
1	6376	1672.0005	1
1	6385	1673.0005	2
1	6387	1674.0005	1
1	6390	1674.0005	2
1	6392	1676.0005	1
1	6399	1677.0005	2
1	6406	1678.0005	1
1	6408	1678.0005	2
1	6412	1680.0005	1
1	6416	1680.0005	2
1	6417	1682.0005	1
1	6419	1682.0005	2
1	6421	1684.0005	1
1	6432	1686.0005	0
1	6434	1686.0005	1
1	6444	1688.0005	0
1	6447	1688.0005	1
1	6456	1689.5005	2
1	6457	1690.0005	1
1	6461	1692.0005	0
1	6464	1692.0005	1
1	6471	1694.0005	0
1	6488	1697.0005	1
1	6489	1698.5005	0
1	6548	1710.0005	1
1	6549	1711.5005	0
1	6551	1711.5005	1
1	6567	1713.5005	0
1	6569	1713.5005	1
1	6574	1715.5005	0
1	6579	1715.5005	1
1	6590	1717.5005	0
1	6595	1717.5005	1
1	6596	1719.5005	0
1	6642	1723.5005	1
1	6652	1724.5005	0
1	6655	1724.5005	1
1	6660	1726.5005	0
1	6705	1732.0005	1
1	6708	1733.0005	2
1	6709	1733.5005	1
1	6720	1735.5005	0
1	6727	1735.5005	1
1	6738	1736.5005	2
1	6741	1737.0005	3
1	6742	1737.5005	2
1	6749	1739.5005	1
1	6758	1741.0005	2
1	6759	1741.5005	1
1	6762	1743.5005	0
1	6767	1744.0005	1
1	6771	1745.5005	0
1	6815	1758.0005	1
1	6817	1759.0005	0
1	6823	1759.0005	1
1	6826	1760.0005	2
1	6827	1761.0005	1
1	6832	1761.0005	2
1	6837	1763.0005	1
1	6845	1764.0005	2
1	6846	1765.0005	1
1	6848	1765.0005	2
1	6849	1767.0005	1
1	6851	1767.0005	2
1	6855	1769.0005	1
1	6857	1769.0005	2
1	6858	1771.0005	1
1	6860	1771.0005	2
1	6867	1773.0005	1
1	6869	1773.0005	2
1	6871	1775.0005	1
1	6877	1775.0005	2
1	6880	1776.0005	3
1	6881	1777.0005	2
1	6892	1778.0005	3
1	6894	1779.0005	2
1	6908	1781.0005	1
1	6935	1783.0005	0
1	6938	1783.0005	1
1	6951	1785.0005	0
1	6963	1786.5005	1
1	6964	1787.0005	0
1	6966	1787.0005	1
1	6973	1789.0005	0
1	6993	1790.5005	1
1	6994	1791.0005	0
1	7147	1827.5005	1
1	7149	1828.5005	0
1	7160	1830.0005	1
1	7161	1830.5005	0
1	7181	1833.0005	1
1	7189	1834.5005	0
1	7191	1834.5005	1
1	7198	1836.5005	0
1	7226	1842.0005	1
1	7227	1842.5005	0
1	7232	1844.0005	1
1	7233	1844.5005	0
1	7246	1846.0005	1
1	7247	1846.5005	0
1	7307	1856.0005	1
1	7311	1857.5005	0
1	7361	1861.5005	1
1	7363	1862.0005	0
1	7381	1866.0005	1
1	7382	1868.0005	0
1	7416	1873.5005	1
1	7420	1875.0005	0
1	7425	1875.5005	1
1	7428	1877.0005	0
1	7430	1877.0005	1
1	7433	1878.0005	2
1	7434	1879.0005	1
1	7436	1879.0005	2
1	7437	1881.0005	1
1	7443	1883.0005	0
1	7445	1883.0005	1
1	7446	1885.0005	0
1	7448	1885.0005	1
1	7452	1887.0005	0
1	7587	1919.0005	1
1	7588	1919.5005	0
1	7669	1937.0005	1
1	7672	1938.0005	0
1	7757	1955.0005	1
1	7758	1957.0005	0
1	7822	1966.0005	1
1	7826	1966.0005	2
1	7829	1966.5005	1
1	7841	1968.5005	0
1	7857	1970.0005	1
1	7862	1970.5005	0
1	7937	1982.5005	1
1	7939	1984.0005	0
1	7942	1984.0005	1
1	7944	1986.0005	0
1	7954	1987.0005	1
1	7955	1988.0005	0
1	7977	1991.0005	1
1	7980	1992.0005	0
1	7986	1992.0005	1
1	7988	1994.0005	0
1	7991	1994.0005	1
1	7993	1996.0005	0
1	7995	1996.0005	1
1	7997	1998.0005	0
1	8000	1998.0005	1
1	8005	2000.0005	0
1	8007	2000.0005	1
1	8009	2002.0005	0
1	8013	2002.0005	1
1	8023	2004.0005	0
1	8025	2004.0005	1
1	8029	2006.0005	0
1	8050	2010.0005	1
1	8054	2011.0005	0
1	8056	2011.0005	1
1	8057	2013.0005	0
1	8142	2030.0005	1
1	8143	2032.0005	0
1	8145	2032.0005	1
1	8147	2034.0005	0
1	8205	2050.0005	1
1	8206	2051.5005	0
1	8317	2080.0005	1
1	8318	2081.5005	0
1	8326	2082.0005	1
1	8330	2083.5005	0
1	8332	2083.5005	1
1	8335	2085.5005	0
1	8465	2118.5005	1
1	8469	2120.0005	0
1	8475	2120.0005	1
1	8477	2122.0005	0
1	8549	2141.0005	1
1	8551	2142.0005	0
1	8555	2142.0005	1
1	8558	2142.0005	2
1	8559	2144.0005	1
1	8561	2144.0005	2
1	8564	2146.0005	1
1	8575	2147.0005	2
1	8576	2148.0005	1
1	8580	2148.0005	2
1	8585	2150.0005	1
1	8592	2151.0005	2
1	8593	2152.0005	1
1	8600	2154.0005	0
1	8604	2154.0005	1
1	8605	2156.0005	0
1	8615	2157.5005	1
1	8617	2158.0005	0
1	8620	2158.0005	1
1	8624	2158.0005	2
1	8625	2160.0005	1
1	8629	2160.0005	2
1	8631	2162.0005	1
1	8641	2162.0005	2
1	8647	2164.0005	1
1	8661	2166.0005	0
1	8685	2170.0005	1
1	8686	2171.0005	0
1	8719	2178.0005	1
1	8720	2179.0005	0
1	8752	2187.5005	1
1	8753	2188.5005	0
1	8767	2194.0005	1
1	8768	2194.5005	0
1	8866	2217.0005	1
1	8868	2218.0005	0
1	8875	2219.5005	1
1	8876	2220.0005	0
2	0	0	0
2	42	0.0005	1
2	59	1.5005	0
2	163	24.0005	1
2	164	25.5005	0
2	166	25.5005	1
2	167	27.0005	0
2	220	39.0005	1
2	221	39.5005	0
2	266	45.5005	1
2	267	46.5005	0
2	786	204.0005	1
2	787	205.5005	0
2	789	205.5005	1
2	790	207.0005	0
2	834	220.0005	1
2	840	221.5005	0
2	845	222.0005	1
2	846	223.0005	0
2	995	252.0005	1
2	996	253.0005	0
2	1065	276.0005	1
2	1066	277.5005	0
2	1574	414.0005	1
2	1575	414.5005	0
2	2118	550.0005	1
2	2119	550.5005	0
2	2258	592.0005	1
2	2259	592.5005	0
2	2306	613.5005	1
2	2307	615.0005	0
2	2570	676.5005	1
2	2571	677.5005	0
2	2788	736.0005	1
2	2795	737.5005	0
2	2814	740.0005	1
2	2818	741.0005	0
2	2877	767.0005	1
2	2879	768.0005	0
2	2919	772.0005	1
2	2923	773.5005	0
2	2925	773.5005	1
2	2931	775.0005	0
2	2972	783.0005	1
2	2974	784.0005	0
2	2977	784.0005	1
2	2993	785.5005	0
2	2995	785.5005	1